 Entering Gaussian System, Link 0=g09
 Input=M003_1_4_SPE_NoPd.com
 Output=M003_1_4_SPE_NoPd.log
 Initial command:
 /gstore/apps/gaussian/g09.e01-foss-2017a/g09/l1.exe "/local/22791169/Gau-18612.inp" -scrdir="/local/22791169/"
 Entering Link 1 = /gstore/apps/gaussian/g09.e01-foss-2017a/g09/l1.exe PID=     18613.
  
 Copyright (c) 1988,1990,1992,1993,1995,1998,2003,2009,2015,
            Gaussian, Inc.  All Rights Reserved.
  
 This is part of the Gaussian(R) 09 program.  It is based on
 the Gaussian(R) 03 system (copyright 2003, Gaussian, Inc.),
 the Gaussian(R) 98 system (copyright 1998, Gaussian, Inc.),
 the Gaussian(R) 94 system (copyright 1995, Gaussian, Inc.),
 the Gaussian 92(TM) system (copyright 1992, Gaussian, Inc.),
 the Gaussian 90(TM) system (copyright 1990, Gaussian, Inc.),
 the Gaussian 88(TM) system (copyright 1988, Gaussian, Inc.),
 the Gaussian 86(TM) system (copyright 1986, Carnegie Mellon
 University), and the Gaussian 82(TM) system (copyright 1983,
 Carnegie Mellon University). Gaussian is a federally registered
 trademark of Gaussian, Inc.
  
 This software contains proprietary and confidential information,
 including trade secrets, belonging to Gaussian, Inc.
  
 This software is provided under written license and may be
 used, copied, transmitted, or stored only in accord with that
 written license.
  
 The following legend is applicable only to US Government
 contracts under FAR:
  
                    RESTRICTED RIGHTS LEGEND
  
 Use, reproduction and disclosure by the US Government is
 subject to restrictions as set forth in subparagraphs (a)
 and (c) of the Commercial Computer Software - Restricted
 Rights clause in FAR 52.227-19.
  
 Gaussian, Inc.
 340 Quinnipiac St., Bldg. 40, Wallingford CT 06492
  
  
 ---------------------------------------------------------------
 Warning -- This program may not be used in any manner that
 competes with the business of Gaussian, Inc. or will provide
 assistance to any competitor of Gaussian, Inc.  The licensee
 of this program is prohibited from giving any competitor of
 Gaussian, Inc. access to this program.  By using this program,
 the user acknowledges that Gaussian, Inc. is engaged in the
 business of creating and licensing software in the field of
 computational chemistry and represents and warrants to the
 licensee that it is not a competitor of Gaussian, Inc. and that
 it will not use this program in any manner prohibited above.
 ---------------------------------------------------------------
  

 Cite this work as:
 Gaussian 09, Revision E.01,
 M. J. Frisch, G. W. Trucks, H. B. Schlegel, G. E. Scuseria, 
 M. A. Robb, J. R. Cheeseman, G. Scalmani, V. Barone, B. Mennucci, 
 G. A. Petersson, H. Nakatsuji, M. Caricato, X. Li, H. P. Hratchian, 
 A. F. Izmaylov, J. Bloino, G. Zheng, J. L. Sonnenberg, M. Hada, 
 M. Ehara, K. Toyota, R. Fukuda, J. Hasegawa, M. Ishida, T. Nakajima, 
 Y. Honda, O. Kitao, H. Nakai, T. Vreven, J. A. Montgomery, Jr., 
 J. E. Peralta, F. Ogliaro, M. Bearpark, J. J. Heyd, E. Brothers, 
 K. N. Kudin, V. N. Staroverov, T. Keith, R. Kobayashi, J. Normand, 
 K. Raghavachari, A. Rendell, J. C. Burant, S. S. Iyengar, J. Tomasi, 
 M. Cossi, N. Rega, J. M. Millam, M. Klene, J. E. Knox, J. B. Cross, 
 V. Bakken, C. Adamo, J. Jaramillo, R. Gomperts, R. E. Stratmann, 
 O. Yazyev, A. J. Austin, R. Cammi, C. Pomelli, J. W. Ochterski, 
 R. L. Martin, K. Morokuma, V. G. Zakrzewski, G. A. Voth, 
 P. Salvador, J. J. Dannenberg, S. Dapprich, A. D. Daniels, 
 O. Farkas, J. B. Foresman, J. V. Ortiz, J. Cioslowski, 
 and D. J. Fox, Gaussian, Inc., Wallingford CT, 2013.
 
 ******************************************
 Gaussian 09:  ES64L-G09RevE.01 30-Nov-2015
                 1-Dec-2021 
 ******************************************
 %nprocs=14
 Will use up to   14 processors via shared memory.
 %mem=128GB
 %chk=M003_1_4_SPE_NoPd.chk
 ----------------------------------------------------------------------
 # PBE1PBE gen pseudo=read int=(grid=ultrafine) empiricaldispersion=GD3
 BJ nmr=giao
 ----------------------------------------------------------------------
 1/38=1/1;
 2/12=2,17=6,18=5,40=1/2;
 3/5=7,11=2,16=1,17=8,25=1,30=1,74=-13,75=-5,124=41/1,2,8,3;
 4//1;
 5/5=2,38=5/2;
 8/6=1,10=90,11=11/1;
 10/13=100,45=16/2;
 6/7=2,8=2,9=2,10=2,28=1/1;
 99/9=1/99;
 --------------
 M003_1_4 title
 --------------
 Symbolic Z-matrix:
 Charge =  0 Multiplicity = 1
 Fe                    0.03792  -1.59338   1.73331 
 P                     1.79507  -0.1194   -0.82086 
 P                    -1.76664   0.28873  -0.43461 
 C                     1.53321  -1.42533   0.41574 
 C                     0.65051  -2.52882   0.06518 
 C                     0.66842  -3.47518   1.13798 
 C                     1.52424  -2.96567   2.16001 
 C                     2.09429  -1.71575   1.73121 
 C                    -1.52217  -0.42672   1.23589 
 C                    -2.0097   -1.63059   1.90849 
 C                    -1.39751  -1.65109   3.21249 
 C                    -0.5838   -0.49409   3.37889 
 C                    -0.63762   0.25832   2.16611 
 C                     3.26388  -0.7582   -1.72849 
 C                     3.54265  -2.13249  -1.7108 
 C                     4.68143  -2.62971  -2.36143 
 C                     5.54197  -1.76692  -3.04733 
 C                     5.24943  -0.39615  -3.08419 
 C                     4.11694   0.1119   -2.43606 
 C                     2.42531   1.40957  -0.00452 
 C                     3.78144   1.60404   0.31908 
 C                     4.18578   2.76828   0.98578 
 C                     3.24979   3.74834   1.34722 
 C                     1.905     3.56318   1.00786 
 C                     1.49932   2.41352   0.31336 
 C                    -2.40362   1.95335   0.05492 
 C                    -3.12025   2.0824    1.25731 
 C                    -3.58742   3.33637   1.67052 
 C                    -3.33156   4.47555   0.89887 
 C                    -2.61517   4.34522  -0.29866 
 C                    -2.15368   3.09402  -0.72869 
 C                    -3.20023  -0.59317  -1.17448 
 C                    -4.52416  -0.27018  -0.85234 
 C                    -5.57855  -0.99426  -1.4303 
 C                    -5.32122  -2.0291   -2.33644 
 C                    -3.99385  -2.32757  -2.67863 
 C                    -2.93669  -1.61215  -2.10611 
 H                     0.05758  -2.59316  -0.84884 
 H                    -0.11388   1.19497   1.98041 
 H                     2.88575  -2.82625  -1.18127 
 H                     6.43443  -2.15435  -3.54405 
 H                     3.90787   1.18212  -2.47654 
 H                     4.53202   0.85701   0.04833 
 H                     3.56744   4.64568   1.88298 
 H                     0.45483   2.30073   0.00658 
 H                    -3.30899   1.20918   1.8858 
 H                    -3.67912   5.45721   1.23081 
 H                    -1.61139   3.00059  -1.67425 
 H                    -4.74798   0.55261  -0.16808 
 H                    -6.14653  -2.57704  -2.79629 
 H                    -1.90656  -1.8086   -2.41894 
 C                     3.19488  -0.98507   2.48549 
 H                     0.02861  -0.26008   4.2471 
 H                    -1.53269  -2.44985   3.94006 
 C                    -3.10901  -2.60943   1.51757 
 H                     3.53196  -0.14217   1.84524 
 N                     4.32529  -1.90814   2.73871 
 C                     4.79915  -2.54159   1.50659 
 C                     5.43813  -1.18063   3.36169 
 H                     5.64525  -3.20565   1.74728 
 H                     4.00677  -3.15636   1.05536 
 H                     5.15048  -1.8068    0.74289 
 H                     6.26964  -1.88337   3.53454 
 H                     5.81368  -0.34239   2.72971 
 H                     5.12714  -0.7631    4.33121 
 C                     1.68189   0.78574   6.154 
 C                     2.01147  -0.57938   6.11798 
 C                     2.51667  -1.15414   4.94378 
 C                     2.69494  -0.37171   3.78868 
 C                     2.38751   0.99768   3.83989 
 C                     1.87713   1.57506   5.01106 
 H                     1.28379   1.23204   7.07082 
 H                     1.8775   -1.19841   7.01131 
 H                     2.80337  -2.21023   4.91742 
 H                     2.53976   1.61614   2.95082 
 H                     1.63421   2.64273   5.02911 
 N                    -4.17333  -2.57133   2.55484 
 H                    -3.51298  -2.30247   0.53197 
 C                    -5.30425  -3.41657   2.14997 
 C                    -4.66887  -1.21636   2.81752 
 H                    -5.80222  -3.05352   1.22227 
 H                    -4.96631  -4.45103   1.98697 
 H                    -6.05312  -3.41858   2.95972 
 H                    -5.15509  -0.7453    1.93307 
 H                    -5.42457  -1.26951   3.61923 
 H                    -3.85363  -0.56649   3.17122 
 C                    -1.5323   -6.63059   1.01845 
 C                    -1.7641   -6.12393   2.30835 
 C                    -2.29172  -4.83693   2.47909 
 C                    -2.58345  -4.03355   1.3615 
 C                    -2.37737  -4.55881   0.07628 
 C                    -1.85225  -5.84679  -0.09964 
 H                    -1.12068  -7.63657   0.88805 
 H                    -2.51188  -4.45431   3.4804 
 H                    -2.64306  -3.96028  -0.79825 
 C                    -4.29069   3.44551   3.00147 
 F                    -3.39566   3.57172   4.02064 
 F                    -5.11772   4.52047   3.05131 
 F                    -5.03373   2.33197   3.26089 
 C                    -2.37287   5.57207  -1.14959 
 F                    -3.46477   5.86198  -1.90723 
 F                    -2.12266   6.66263  -0.37229 
 F                    -1.32147   5.40649  -1.9877 
 C                    -6.99316  -0.66567  -1.01886 
 F                    -7.19025   0.67603  -0.94679 
 F                    -7.90909  -1.18243  -1.87457 
 F                    -7.26813  -1.17118   0.22379 
 C                    -3.69115  -3.44514  -3.64939 
 F                    -3.47792  -4.62626  -2.98597 
 F                    -4.71786  -3.65616  -4.51008 
 F                    -2.57357  -3.19199  -4.37217 
 C                     5.01486  -4.09276  -2.21336 
 F                     5.87275  -4.52299  -3.17176 
 F                     5.60555  -4.33523  -1.00264 
 F                     3.89907  -4.86843  -2.26666 
 C                     6.13338   0.54281  -3.872 
 F                     5.68504   0.69409  -5.14385 
 F                     6.17219   1.77827  -3.30331 
 F                     7.4115    0.07882  -3.94331 
 C                     5.62708   2.90085   1.418 
 F                     6.47046   2.31413   0.53069 
 F                     5.99496   4.19839   1.56055 
 F                     5.82161   2.2886    2.62382 
 C                     0.85635   4.58671   1.3732 
 F                     1.3307    5.51915   2.23573 
 F                     0.38773   5.23229   0.27487 
 F                    -0.21445   3.97802   1.96868 
 H                    -1.54     -6.73928   3.1862 
 H                    -1.70701  -6.23584  -1.11269 
 H                     0.07239  -4.38358   1.19659 
 H                     1.70545  -3.42459   3.13144 
 
 Stoichiometry    C60H42F24FeN2P2
 Framework group  C1[X(C60H42F24FeN2P2)]
 Deg. of freedom   387
 Full point group                 C1      NOp   1
 Largest Abelian subgroup         C1      NOp   1
 Largest concise Abelian subgroup C1      NOp   1
                         Standard orientation:                         
 ---------------------------------------------------------------------
 Center     Atomic      Atomic             Coordinates (Angstroms)
 Number     Number       Type             X           Y           Z
 ---------------------------------------------------------------------
      1         26           0       -0.106603   -1.017862    1.776814
      2         15           0        1.818759   -0.376010   -0.991757
      3         15           0       -1.751209    0.129644   -0.957623
      4          6           0        1.463769   -1.252028    0.560582
      5          6           0        0.582686   -2.409703    0.503772
      6          6           0        0.522725   -2.991689    1.809336
      7          6           0        1.328227   -2.199861    2.681539
      8          6           0        1.944050   -1.135623    1.933683
      9          6           0       -1.614761   -0.053206    0.861763
     10          6           0       -2.161198   -1.000573    1.832991
     11          6           0       -1.624405   -0.630054    3.117579
     12          6           0       -0.800776    0.523575    2.978897
     13          6           0       -0.772210    0.878628    1.595795
     14          6           0        3.324950   -1.257387   -1.578098
     15          6           0        3.577528   -2.563468   -1.134185
     16          6           0        4.742246   -3.232799   -1.537655
     17          6           0        5.655666   -2.614938   -2.397492
     18          6           0        5.390370   -1.317957   -2.859431
     19          6           0        4.232258   -0.639039   -2.461200
     20          6           0        2.429075    1.327067   -0.633390
     21          6           0        3.767940    1.609205   -0.302577
     22          6           0        4.154685    2.919529    0.008754
     23          6           0        3.217469    3.963005    0.004621
     24          6           0        1.890981    3.685030   -0.343310
     25          6           0        1.504737    2.380302   -0.685557
     26          6           0       -2.384907    1.864589   -1.026436
     27          6           0       -3.166129    2.347644    0.037664
     28          6           0       -3.633371    3.667888    0.028914
     29          6           0       -3.313730    4.523927   -1.031122
     30          6           0       -2.533049    4.041106   -2.090219
     31          6           0       -2.070476    2.718474   -2.098662
     32          6           0       -3.156158   -0.932976   -1.484204
     33          6           0       -4.490209   -0.528157   -1.352595
     34          6           0       -5.522972   -1.391804   -1.749541
     35          6           0       -5.233315   -2.650422   -2.288235
     36          6           0       -3.894258   -3.037847   -2.446063
     37          6           0       -2.858567   -2.184083   -2.051543
     38          1           0        0.041472   -2.744480   -0.382880
     39          1           0       -0.222034    1.716701    1.170303
     40          1           0        2.879292   -3.066880   -0.461663
     41          1           0        6.567747   -3.133414   -2.701810
     42          1           0        4.045091    0.370069   -2.831857
     43          1           0        4.519123    0.815256   -0.292691
     44          1           0        3.520306    4.979492    0.265800
     45          1           0        0.477466    2.181072   -1.006209
     46          1           0       -3.405861    1.702526    0.885892
     47          1           0       -3.661858    5.559995   -1.028837
     48          1           0       -1.477205    2.346292   -2.939138
     49          1           0       -4.737645    0.461724   -0.959906
     50          1           0       -6.040933   -3.310706   -2.611673
     51          1           0       -1.816059   -2.465326   -2.229568
     52          6           0        3.013046   -0.212923    2.499355
     53          1           0       -0.234477    1.006548    3.772396
     54          1           0       -1.814952   -1.174486    4.041126
     55          6           0       -3.253981   -2.051342    1.687613
     56          1           0        3.400985    0.399721    1.657809
     57          7           0        4.110509   -1.018132    3.083500
     58          6           0        4.642017   -1.991328    2.127296
     59          6           0        5.199126   -0.137741    3.525781
     60          1           0        5.461029   -2.553095    2.605232
     61          1           0        3.865575   -2.712808    1.833997
     62          1           0        5.049231   -1.518791    1.201301
     63          1           0        6.006735   -0.756714    3.949777
     64          1           0        5.624913    0.472915    2.695794
     65          1           0        4.841214    0.550824    4.306032
     66          6           0        1.326540    2.574750    5.374682
     67          6           0        1.633050    1.261337    5.767715
     68          6           0        2.193602    0.361471    4.851024
     69          6           0        2.451124    0.762377    3.527697
     70          6           0        2.165943    2.084402    3.149171
     71          6           0        1.600436    2.985871    4.061886
     72          1           0        0.885178    3.275006    6.090968
     73          1           0        1.437539    0.938006    6.795544
     74          1           0        2.462312   -0.654175    5.158409
     75          1           0        2.379447    2.408466    2.126669
     76          1           0        1.376106    4.010067    3.745734
     77          7           0       -4.374550   -1.704408    2.600924
     78          1           0       -3.595835   -2.053285    0.633126
     79          6           0       -5.495702   -2.631871    2.400476
     80          6           0       -4.859759   -0.332830    2.416939
     81          1           0       -5.933664   -2.562957    1.378784
     82          1           0       -5.167708   -3.667772    2.574301
     83          1           0       -6.289198   -2.391354    3.127817
     84          1           0       -5.286503   -0.147916    1.404876
     85          1           0       -5.660541   -0.143513    3.151486
     86          1           0       -4.054336    0.392949    2.608214
     87          6           0       -1.724034   -6.037897    2.507066
     88          6           0       -2.019460   -5.168435    3.570572
     89          6           0       -2.532696   -3.889212    3.317399
     90          6           0       -2.746105   -3.457002    1.995585
     91          6           0       -2.476946   -4.342807    0.940569
     92          6           0       -1.965925   -5.624513    1.188947
     93          1           0       -1.323827   -7.036876    2.707821
     94          1           0       -2.802364   -3.224467    4.143766
     95          1           0       -2.681826   -4.033340   -0.086997
     96          6           0       -4.408900    4.170409    1.222198
     97          9           0       -3.570980    4.595639    2.208500
     98          9           0       -5.217975    5.211185    0.899405
     99          9           0       -5.185346    3.185654    1.757701
    100          6           0       -2.220879    4.957077   -3.252765
    101          9           0       -3.262675    5.007196   -4.125957
    102          9           0       -1.995588    6.230214   -2.823235
    103          9           0       -1.126791    4.548114   -3.939064
    104          6           0       -6.952497   -0.954907   -1.539940
    105          9           0       -7.129212    0.346923   -1.883763
    106          9           0       -7.827579   -1.703869   -2.255133
    107          9           0       -7.306535   -1.065366   -0.221685
    108          6           0       -3.557127   -4.394748   -3.018902
    109          9           0       -3.403116   -5.323281   -2.021529
    110          9           0       -4.537008   -4.853456   -3.836749
    111          9           0       -2.395988   -4.369675   -3.716479
    112          6           0        5.040396   -4.584571   -0.939795
    113          9           0        5.943384   -5.282021   -1.673130
    114          9           0        5.557029   -4.453759    0.320970
    115          9           0        3.915669   -5.340451   -0.825246
    116          6           0        6.334295   -0.657905   -3.837695
    117          9           0        5.961586   -0.894049   -5.120980
    118          9           0        6.362999    0.691106   -3.662726
    119          9           0        7.605863   -1.122209   -3.690994
    120          6           0        5.571308    3.175090    0.466582
    121          9           0        6.452969    2.349591   -0.153169
    122          9           0        5.953778    4.455771    0.236678
    123          9           0        5.686119    2.951671    1.809557
    124          6           0        0.841867    4.771167   -0.363413
    125          9           0        1.283225    5.918888    0.207847
    126          9           0        0.447954    5.058608   -1.630278
    127          9           0       -0.271746    4.368748    0.321890
    128          1           0       -1.856593   -5.492948    4.603842
    129          1           0       -1.770499   -6.298895    0.348865
    130          1           0       -0.091904   -3.840820    2.101042
    131          1           0        1.445784   -2.347113    3.754679
 ---------------------------------------------------------------------
 Rotational constants (GHZ):      0.0230603      0.0172056      0.0141595
 General basis read from cards:  (5D, 7F)
 ======================================================================================================
                                       Pseudopotential Parameters
 ======================================================================================================
  Center     Atomic      Valence      Angular      Power
  Number     Number     Electrons     Momentum     of R      Exponent        Coefficient   SO-Coeffient
 ======================================================================================================
    1         26           16
                                      F and up 
                                                     2        1.0000000        0.00000000    0.00000000
                                      S - F
                                                     2       20.9300000      253.74958800    0.00000000
                                                     2        9.4450000       37.92284500    0.00000000
                                      P - F
                                                     2       21.7600000      161.03681200    0.00000000
                                                     2        9.1780000       27.65129800    0.00000000
                                      D - F
                                                     2       25.9000000      -24.43127600    0.00000000
                                                     2        8.8350000       -1.43425100    0.00000000
    2         15
                                   No pseudopotential on this center.
    3         15
                                   No pseudopotential on this center.
    4          6
                                   No pseudopotential on this center.
    5          6
                                   No pseudopotential on this center.
    6          6
                                   No pseudopotential on this center.
    7          6
                                   No pseudopotential on this center.
    8          6
                                   No pseudopotential on this center.
    9          6
                                   No pseudopotential on this center.
   10          6
                                   No pseudopotential on this center.
   11          6
                                   No pseudopotential on this center.
   12          6
                                   No pseudopotential on this center.
   13          6
                                   No pseudopotential on this center.
   14          6
                                   No pseudopotential on this center.
   15          6
                                   No pseudopotential on this center.
   16          6
                                   No pseudopotential on this center.
   17          6
                                   No pseudopotential on this center.
   18          6
                                   No pseudopotential on this center.
   19          6
                                   No pseudopotential on this center.
   20          6
                                   No pseudopotential on this center.
   21          6
                                   No pseudopotential on this center.
   22          6
                                   No pseudopotential on this center.
   23          6
                                   No pseudopotential on this center.
   24          6
                                   No pseudopotential on this center.
   25          6
                                   No pseudopotential on this center.
   26          6
                                   No pseudopotential on this center.
   27          6
                                   No pseudopotential on this center.
   28          6
                                   No pseudopotential on this center.
   29          6
                                   No pseudopotential on this center.
   30          6
                                   No pseudopotential on this center.
   31          6
                                   No pseudopotential on this center.
   32          6
                                   No pseudopotential on this center.
   33          6
                                   No pseudopotential on this center.
   34          6
                                   No pseudopotential on this center.
   35          6
                                   No pseudopotential on this center.
   36          6
                                   No pseudopotential on this center.
   37          6
                                   No pseudopotential on this center.
   38          1
                                   No pseudopotential on this center.
   39          1
                                   No pseudopotential on this center.
   40          1
                                   No pseudopotential on this center.
   41          1
                                   No pseudopotential on this center.
   42          1
                                   No pseudopotential on this center.
   43          1
                                   No pseudopotential on this center.
   44          1
                                   No pseudopotential on this center.
   45          1
                                   No pseudopotential on this center.
   46          1
                                   No pseudopotential on this center.
   47          1
                                   No pseudopotential on this center.
   48          1
                                   No pseudopotential on this center.
   49          1
                                   No pseudopotential on this center.
   50          1
                                   No pseudopotential on this center.
   51          1
                                   No pseudopotential on this center.
   52          6
                                   No pseudopotential on this center.
   53          1
                                   No pseudopotential on this center.
   54          1
                                   No pseudopotential on this center.
   55          6
                                   No pseudopotential on this center.
   56          1
                                   No pseudopotential on this center.
   57          7
                                   No pseudopotential on this center.
   58          6
                                   No pseudopotential on this center.
   59          6
                                   No pseudopotential on this center.
   60          1
                                   No pseudopotential on this center.
   61          1
                                   No pseudopotential on this center.
   62          1
                                   No pseudopotential on this center.
   63          1
                                   No pseudopotential on this center.
   64          1
                                   No pseudopotential on this center.
   65          1
                                   No pseudopotential on this center.
   66          6
                                   No pseudopotential on this center.
   67          6
                                   No pseudopotential on this center.
   68          6
                                   No pseudopotential on this center.
   69          6
                                   No pseudopotential on this center.
   70          6
                                   No pseudopotential on this center.
   71          6
                                   No pseudopotential on this center.
   72          1
                                   No pseudopotential on this center.
   73          1
                                   No pseudopotential on this center.
   74          1
                                   No pseudopotential on this center.
   75          1
                                   No pseudopotential on this center.
   76          1
                                   No pseudopotential on this center.
   77          7
                                   No pseudopotential on this center.
   78          1
                                   No pseudopotential on this center.
   79          6
                                   No pseudopotential on this center.
   80          6
                                   No pseudopotential on this center.
   81          1
                                   No pseudopotential on this center.
   82          1
                                   No pseudopotential on this center.
   83          1
                                   No pseudopotential on this center.
   84          1
                                   No pseudopotential on this center.
   85          1
                                   No pseudopotential on this center.
   86          1
                                   No pseudopotential on this center.
   87          6
                                   No pseudopotential on this center.
   88          6
                                   No pseudopotential on this center.
   89          6
                                   No pseudopotential on this center.
   90          6
                                   No pseudopotential on this center.
   91          6
                                   No pseudopotential on this center.
   92          6
                                   No pseudopotential on this center.
   93          1
                                   No pseudopotential on this center.
   94          1
                                   No pseudopotential on this center.
   95          1
                                   No pseudopotential on this center.
   96          6
                                   No pseudopotential on this center.
   97          9
                                   No pseudopotential on this center.
   98          9
                                   No pseudopotential on this center.
   99          9
                                   No pseudopotential on this center.
  100          6
                                   No pseudopotential on this center.
  101          9
                                   No pseudopotential on this center.
  102          9
                                   No pseudopotential on this center.
  103          9
                                   No pseudopotential on this center.
  104          6
                                   No pseudopotential on this center.
  105          9
                                   No pseudopotential on this center.
  106          9
                                   No pseudopotential on this center.
  107          9
                                   No pseudopotential on this center.
  108          6
                                   No pseudopotential on this center.
  109          9
                                   No pseudopotential on this center.
  110          9
                                   No pseudopotential on this center.
  111          9
                                   No pseudopotential on this center.
  112          6
                                   No pseudopotential on this center.
  113          9
                                   No pseudopotential on this center.
  114          9
                                   No pseudopotential on this center.
  115          9
                                   No pseudopotential on this center.
  116          6
                                   No pseudopotential on this center.
  117          9
                                   No pseudopotential on this center.
  118          9
                                   No pseudopotential on this center.
  119          9
                                   No pseudopotential on this center.
  120          6
                                   No pseudopotential on this center.
  121          9
                                   No pseudopotential on this center.
  122          9
                                   No pseudopotential on this center.
  123          9
                                   No pseudopotential on this center.
  124          6
                                   No pseudopotential on this center.
  125          9
                                   No pseudopotential on this center.
  126          9
                                   No pseudopotential on this center.
  127          9
                                   No pseudopotential on this center.
  128          1
                                   No pseudopotential on this center.
  129          1
                                   No pseudopotential on this center.
  130          1
                                   No pseudopotential on this center.
  131          1
                                   No pseudopotential on this center.
 ======================================================================================================
 There are  3481 symmetry adapted cartesian basis functions of A   symmetry.
 There are  3035 symmetry adapted basis functions of A   symmetry.
  3035 basis functions,  4935 primitive gaussians,  3481 cartesian basis functions
   339 alpha electrons      339 beta electrons
       nuclear repulsion energy     20257.2965003749 Hartrees.
 NAtoms=  131 NActive=  131 NUniq=  131 SFac= 1.00D+00 NAtFMM=   60 NAOKFM=T Big=T
 Integral buffers will be    131072 words long.
 Raffenetti 2 integral format.
 Two-electron integral symmetry is turned on.
 Nuclear repulsion after empirical dispersion term =    20257.0701605484 Hartrees.
 One-electron integrals computed using PRISM.
   1 Symmetry operations used in ECPInt.
 ECPInt:  NShTT=  667590 NPrTT= 2100277 LenC2=  417363 LenP2D=  809691.
 LDataN:  DoStor=T MaxTD1= 6 Len=  172
 NBasis=  3035 RedAO= T EigKep=  3.08D-06  NBF=  3035
 NBsUse=  3035 1.00D-06 EigRej= -1.00D+00 NBFU=  3035
 ExpMin= 1.00D-02 ExpMax= 5.24D+04 ExpMxC= 1.79D+03 IAcc=3 IRadAn=         5 AccDes= 0.00D+00
 Harris functional with IExCor= 1009 and IRadAn=       5 diagonalized for initial guess.
 HarFok:  IExCor= 1009 AccDes= 0.00D+00 IRadAn=         5 IDoV= 1 UseB2=F ITyADJ=14
 ICtDFT=  3500011 ScaDFX=  1.000000  1.000000  1.000000  1.000000
 FoFCou: FMM=F IPFlag=           0 FMFlag=      100000 FMFlg1=        2001
         NFxFlg=           0 DoJE=T BraDBF=F KetDBF=T FulRan=T
         wScrn=  0.000000 ICntrl=     500 IOpCl=  0 I1Cent=   200000004 NGrid=           0
         NMat0=    1 NMatS0=      1 NMatT0=    0 NMatD0=    1 NMtDS0=    0 NMtDT0=    0
 Petite list used in FoFCou.
 Requested convergence on RMS density matrix=1.00D-08 within 128 cycles.
 Requested convergence on MAX density matrix=1.00D-06.
 Requested convergence on             energy=1.00D-06.
 No special actions if energy rises.
 EnCoef did     6 forward-backward iterations
 Restarting incremental Fock formation.
 SCF Done:  E(RPBE1PBE) =  -5620.86886152     A.U. after   25 cycles
            NFock= 25  Conv=0.15D-08     -V/T= 2.0138
 DoSCS=F DFT=T ScalE2(SS,OS)=  1.000000  1.000000
 Range of M.O.s used for correlation:     1  3035
 NBasis=  3035 NAE=   339 NBE=   339 NFC=     0 NFV=     0
 NROrb=   3035 NOA=   339 NOB=   339 NVA=  2696 NVB=  2696

 **** Warning!!: The largest alpha MO coefficient is  0.44188133D+02

          Differentiating once with respect to magnetic field using GIAOs.
          Electric field/nuclear overlap derivatives assumed to be zero.
 FoFCou: FMM=F IPFlag=           0 FMFlag=      100000 FMFlg1=        2001
         NFxFlg=           0 DoJE=F BraDBF=F KetDBF=T FulRan=T
         wScrn=  0.000000 ICntrl=    6100 IOpCl=  0 I1Cent=           7 NGrid=         131
         NMat0=    1 NMatS0=      1 NMatT0=    0 NMatD0=    1 NMtDS0=    0 NMtDT0=    0
 Symmetry not used in FoFCou.
   1 Symmetry operations used in ECPInt.
 ECPInt:  NShTT=  667590 NPrTT= 2100277 LenC2=  667591 LenP2D= 2100277.
 LDataN:  DoStor=T MaxTD1= 7 Len=  274
 FoFJK:  IHMeth= 1 ICntrl=    6127 DoSepK=F KAlg= 0 I1Cent=   0 FoldK=F
 IRaf=         1 NMat=   1 IRICut=       1 DoRegI=T DoRafI=F ISym2E= 0.
          There are     3 degrees of freedom in the 1st order CPHF.  IDoFFX=0 NUNeed=     3.
      3 vectors produced by pass  0 Test12= 3.05D-11 3.33D-08 XBig12= 5.44D+02 2.72D+00.
 AX will form     3 AO Fock derivatives at one time.
      3 vectors produced by pass  1 Test12= 3.05D-11 3.33D-08 XBig12= 2.96D+00 4.33D-01.
      3 vectors produced by pass  2 Test12= 3.05D-11 3.33D-08 XBig12= 1.11D-01 1.00D-01.
      3 vectors produced by pass  3 Test12= 3.05D-11 3.33D-08 XBig12= 2.29D-03 7.88D-03.
      3 vectors produced by pass  4 Test12= 3.05D-11 3.33D-08 XBig12= 2.95D-05 1.38D-03.
      3 vectors produced by pass  5 Test12= 3.05D-11 3.33D-08 XBig12= 1.36D-06 2.14D-04.
      3 vectors produced by pass  6 Test12= 3.05D-11 3.33D-08 XBig12= 7.97D-09 2.38D-05.
      3 vectors produced by pass  7 Test12= 3.05D-11 3.33D-08 XBig12= 6.27D-11 1.91D-06.
      3 vectors produced by pass  8 Test12= 3.05D-11 3.33D-08 XBig12= 5.73D-13 2.60D-07.
 InvSVY:  IOpt=1 It=  1 EMax= 1.07D-14
 Solved reduced A of dimension    27 with     3 vectors.
 Calculating GIAO nuclear magnetic shielding tensors.
 SCF GIAO Magnetic shielding tensor (ppm):
      1  Fe   Isotropic = -6358.4151   Anisotropy =  8094.3037
   XX= -3706.0742   YX= -3685.4983   ZX=  -949.6920
   XY= -3685.9883   YY= -6547.3151   ZY=   879.8518
   XZ=  -994.3982   YZ=   874.8939   ZZ= -8821.8560
   Eigenvalues: -9228.7840 -8884.2486  -962.2126
      2  P    Isotropic =   301.9868   Anisotropy =    56.2875
   XX=   300.4915   YX=   -25.9727   ZX=    -8.9912
   XY=   -34.1832   YY=   308.5676   ZY=    30.3182
   XZ=    -2.6505   YZ=    -3.2981   ZZ=   296.9012
   Eigenvalues:   273.1896   293.2589   339.5118
      3  P    Isotropic =   313.5029   Anisotropy =    33.5252
   XX=   305.6289   YX=   -10.6913   ZX=   -46.0166
   XY=   -25.4118   YY=   318.8378   ZY=    -5.8996
   XZ=    -2.0338   YZ=   -18.5812   ZZ=   316.0419
   Eigenvalues:   275.3703   329.2852   335.8530
      4  C    Isotropic =   110.0962   Anisotropy =    82.4196
   XX=   120.5677   YX=   -39.2051   ZX=    22.5981
   XY=   -34.3197   YY=   134.4902   ZY=     6.2729
   XZ=     9.2782   YZ=    12.6259   ZZ=    75.2306
   Eigenvalues:    62.8587   102.3872   165.0426
      5  C    Isotropic =   104.1119   Anisotropy =    73.0745
   XX=   134.7157   YX=   -26.8118   ZX=   -19.5386
   XY=   -29.7186   YY=   108.6059   ZY=   -43.9267
   XZ=   -21.9904   YZ=   -26.1014   ZZ=    69.0142
   Eigenvalues:    37.6773   121.8302   152.8282
      6  C    Isotropic =   102.9218   Anisotropy =   104.8479
   XX=   148.2081   YX=   -38.5933   ZX=   -16.8463
   XY=   -48.9675   YY=    67.7064   ZY=    17.9320
   XZ=   -14.1251   YZ=    14.4465   ZZ=    92.8509
   Eigenvalues:    46.7484    89.1966   172.8204
      7  C    Isotropic =   106.5862   Anisotropy =    95.8732
   XX=   133.8579   YX=   -24.6012   ZX=   -43.9033
   XY=   -20.0216   YY=   115.4375   ZY=    42.6059
   XZ=   -25.5523   YZ=    20.6387   ZZ=    70.4634
   Eigenvalues:    48.1073   101.1497   170.5017
      8  C    Isotropic =    84.4676   Anisotropy =    95.3454
   XX=    72.0544   YX=   -42.3963   ZX=   -28.8618
   XY=   -27.2271   YY=   122.2467   ZY=    22.3925
   XZ=   -13.6171   YZ=    15.2811   ZZ=    59.1017
   Eigenvalues:    42.6891    62.6825   148.0312
      9  C    Isotropic =   104.3643   Anisotropy =    85.8088
   XX=   112.9668   YX=   -24.3644   ZX=   -40.3843
   XY=   -23.0870   YY=   116.7133   ZY=    33.1589
   XZ=   -17.3247   YZ=    28.7969   ZZ=    83.4129
   Eigenvalues:    60.4816    91.0411   161.5701
     10  C    Isotropic =    82.9084   Anisotropy =    95.4622
   XX=    69.5052   YX=   -54.4771   ZX=    -6.7212
   XY=   -35.5398   YY=   114.8037   ZY=    15.7702
   XZ=    -0.9429   YZ=    22.0291   ZZ=    64.4163
   Eigenvalues:    39.7115    62.4638   146.5499
     11  C    Isotropic =   108.4543   Anisotropy =    94.5398
   XX=   132.5851   YX=   -44.5653   ZX=    23.0212
   XY=   -30.8131   YY=   134.4220   ZY=    -0.5359
   XZ=    13.0009   YZ=    20.4121   ZZ=    58.3559
   Eigenvalues:    49.5986   104.2835   171.4809
     12  C    Isotropic =   103.2433   Anisotropy =   104.0478
   XX=   151.6283   YX=   -35.7449   ZX=    -3.7592
   XY=   -45.6152   YY=    93.7300   ZY=   -22.5897
   XZ=   -17.7953   YZ=   -19.8954   ZZ=    64.3715
   Eigenvalues:    44.3755    92.7458   172.6085
     13  C    Isotropic =   108.3046   Anisotropy =    78.0630
   XX=   146.9484   YX=   -29.1347   ZX=     3.5193
   XY=   -40.1044   YY=    60.2052   ZY=    27.5624
   XZ=    -6.7500   YZ=     6.6614   ZZ=   117.7602
   Eigenvalues:    44.7228   119.8445   160.3466
     14  C    Isotropic =    32.7848   Anisotropy =   201.0140
   XX=    19.5467   YX=    47.8257   ZX=    85.9121
   XY=    41.3493   YY=   -10.6020   ZY=    49.0964
   XZ=    78.9412   YZ=    44.1023   ZZ=    89.4096
   Eigenvalues:   -45.0285   -23.4113   166.7941
     15  C    Isotropic =    45.9488   Anisotropy =   198.5294
   XX=    30.3247   YX=    16.5144   ZX=    80.3544
   XY=     2.5543   YY=    27.0280   ZY=    70.0379
   XZ=    99.5980   YZ=    79.5288   ZZ=    80.4935
   Eigenvalues:   -59.4569    19.0014   178.3017
     16  C    Isotropic =    46.7115   Anisotropy =   161.7691
   XX=    59.0005   YX=    35.9970   ZX=    37.2669
   XY=    37.0407   YY=   -15.5959   ZY=    68.0831
   XZ=    44.3538   YZ=    59.5966   ZZ=    96.7299
   Eigenvalues:   -47.4495    33.0264   154.5576
     17  C    Isotropic =    58.5105   Anisotropy =   183.7570
   XX=    22.1178   YX=    57.2006   ZX=    69.5389
   XY=    55.1457   YY=    39.2628   ZY=    38.5412
   XZ=    72.0584   YZ=    42.6294   ZZ=   114.1510
   Eigenvalues:   -33.6428    28.1592   181.0152
     18  C    Isotropic =    46.9366   Anisotropy =   160.7591
   XX=    27.1804   YX=     0.0209   ZX=    77.7989
   XY=     1.8796   YY=    33.3026   ZY=    58.7803
   XZ=    71.7256   YZ=    59.9905   ZZ=    80.3268
   Eigenvalues:   -43.3645    30.0651   154.1093
     19  C    Isotropic =    49.2444   Anisotropy =   190.1694
   XX=    60.3072   YX=    31.3364   ZX=    56.4204
   XY=    48.8658   YY=   -23.3683   ZY=    65.7741
   XZ=    51.3915   YZ=    69.3947   ZZ=   110.7943
   Eigenvalues:   -54.3759    26.0851   176.0240
     20  C    Isotropic =    38.5763   Anisotropy =   202.5230
   XX=    -3.3205   YX=    -2.2652   ZX=   -41.3675
   XY=    -7.1038   YY=   -38.0077   ZY=   -27.4419
   XZ=   -54.1278   YZ=   -30.6344   ZZ=   157.0572
   Eigenvalues:   -46.3160   -11.5467   173.5916
     21  C    Isotropic =    40.6863   Anisotropy =   204.8102
   XX=   -16.5672   YX=    42.2314   ZX=   -27.9422
   XY=    38.2030   YY=   -28.0996   ZY=   -33.5823
   XZ=   -45.9508   YZ=    -3.2727   ZZ=   166.7257
   Eigenvalues:   -63.4632     8.2957   177.2264
     22  C    Isotropic =    46.7052   Anisotropy =   162.7099
   XX=   -28.4853   YX=    -3.8884   ZX=   -47.0769
   XY=    -9.1113   YY=    29.8804   ZY=   -27.9886
   XZ=   -49.4361   YZ=   -18.9071   ZZ=   138.7204
   Eigenvalues:   -43.5542    28.4912   155.1785
     23  C    Isotropic =    54.7440   Anisotropy =   191.2443
   XX=    27.7101   YX=    -6.3887   ZX=   -38.0772
   XY=    -7.2206   YY=   -25.2719   ZY=   -41.8132
   XZ=   -45.4812   YZ=   -48.9559   ZZ=   161.7939
   Eigenvalues:   -39.9336    21.9255   182.2402
     24  C    Isotropic =    46.1636   Anisotropy =   160.9719
   XX=     2.7387   YX=    39.3225   ZX=   -25.8167
   XY=    46.2214   YY=    -6.1794   ZY=   -23.8446
   XZ=   -27.0027   YZ=   -25.0685   ZZ=   141.9314
   Eigenvalues:   -44.7255    29.7380   153.4782
     25  C    Isotropic =    39.1390   Anisotropy =   193.0511
   XX=   -44.5871   YX=   -15.5183   ZX=   -59.5140
   XY=    -7.1512   YY=    12.7221   ZY=   -32.3298
   XZ=   -55.2098   YZ=   -17.3384   ZZ=   149.2820
   Eigenvalues:   -64.3570    13.9343   167.8397
     26  C    Isotropic =    35.6358   Anisotropy =   206.7679
   XX=   104.9663   YX=    54.1636   ZX=    85.4377
   XY=    50.5457   YY=   -28.2853   ZY=    30.5188
   XZ=    74.6494   YZ=    26.5558   ZZ=    30.2264
   Eigenvalues:   -46.4134   -20.1603   173.4811
     27  C    Isotropic =    36.6808   Anisotropy =   204.7254
   XX=   129.5598   YX=     8.2938   ZX=    76.6226
   XY=    34.5096   YY=    -9.4866   ZY=    49.1681
   XZ=    78.7585   YZ=    50.1553   ZZ=   -10.0307
   Eigenvalues:   -69.7612     6.6393   173.1645
     28  C    Isotropic =    45.0407   Anisotropy =   166.0621
   XX=    90.3070   YX=    43.2750   ZX=    91.8447
   XY=    43.8094   YY=    32.3178   ZY=    -2.8807
   XZ=    78.4234   YZ=     0.4047   ZZ=    12.4973
   Eigenvalues:   -50.1637    29.5370   155.7487
     29  C    Isotropic =    52.9351   Anisotropy =   194.2516
   XX=   129.7723   YX=    62.3241   ZX=    58.1477
   XY=    56.5643   YY=   -22.3509   ZY=    20.9474
   XZ=    64.3127   YZ=    22.4013   ZZ=    51.3840
   Eigenvalues:   -42.8284    19.1976   182.4362
     30  C    Isotropic =    44.0617   Anisotropy =   167.6125
   XX=   113.9104   YX=    17.2460   ZX=    63.2611
   XY=    20.4707   YY=     7.0402   ZY=    51.1272
   XZ=    66.4228   YZ=    47.9877   ZZ=    11.2344
   Eigenvalues:   -48.0713    24.4530   155.8034
     31  C    Isotropic =    44.9665   Anisotropy =   189.7375
   XX=   101.7418   YX=    41.9107   ZX=    97.6198
   XY=    51.4633   YY=    22.2423   ZY=     1.2002
   XZ=    93.0362   YZ=    -9.5211   ZZ=    10.9152
   Eigenvalues:   -59.9201    23.3614   171.4581
     32  C    Isotropic =    41.1335   Anisotropy =   203.5706
   XX=   -25.5458   YX=   -17.5966   ZX=   -14.9224
   XY=   -18.9736   YY=     5.4874   ZY=   -82.5746
   XZ=   -14.8162   YZ=   -68.1783   ZZ=   143.4587
   Eigenvalues:   -49.4609    -3.9860   176.8472
     33  C    Isotropic =    39.5327   Anisotropy =   207.4515
   XX=     1.7839   YX=    21.8735   ZX=     6.1954
   XY=    13.6580   YY=   -20.3160   ZY=   -79.3218
   XZ=    -2.8543   YZ=   -99.7811   ZZ=   137.1302
   Eigenvalues:   -65.0939     5.8584   177.8337
     34  C    Isotropic =    44.8491   Anisotropy =   165.0483
   XX=   -40.5129   YX=    24.0785   ZX=    10.1658
   XY=    18.6316   YY=    41.5976   ZY=   -47.9885
   XZ=     7.3912   YZ=   -50.5254   ZZ=   133.4625
   Eigenvalues:   -48.2960    27.9619   154.8812
     35  C    Isotropic =    54.7322   Anisotropy =   190.9109
   XX=   -11.1739   YX=   -26.7151   ZX=   -15.5557
   XY=   -28.0402   YY=    22.2658   ZY=   -71.2503
   XZ=   -10.8220   YZ=   -64.6131   ZZ=   153.1045
   Eigenvalues:   -39.3450    21.5354   182.0061
     36  C    Isotropic =    45.9223   Anisotropy =   162.9406
   XX=    24.6720   YX=    14.2694   ZX=     6.6447
   XY=    15.3967   YY=    -7.7481   ZY=   -71.8401
   XZ=    10.3732   YZ=   -76.0326   ZZ=   120.8430
   Eigenvalues:   -45.5628    28.7803   154.5494
     37  C    Isotropic =    42.0193   Anisotropy =   189.3702
   XX=   -55.2158   YX=    18.0587   ZX=    13.2692
   XY=    26.3780   YY=    43.1744   ZY=   -56.0909
   XZ=     9.0916   YZ=   -66.7678   ZZ=   138.0994
   Eigenvalues:   -63.3205    21.1124   168.2661
     38  H    Isotropic =    27.3812   Anisotropy =     6.5616
   XX=    29.5842   YX=     4.1246   ZX=    -1.3009
   XY=     2.2073   YY=    27.0058   ZY=    -1.3841
   XZ=     3.5018   YZ=    -0.0873   ZZ=    25.5537
   Eigenvalues:    23.9326    26.4555    31.7556
     39  H    Isotropic =    28.1730   Anisotropy =     4.7957
   XX=    29.5492   YX=     0.8602   ZX=     3.6311
   XY=     4.5524   YY=    26.3551   ZY=    -0.5356
   XZ=    -2.6364   YZ=    -4.1681   ZZ=    28.6147
   Eigenvalues:    23.7225    29.4263    31.3701
     40  H    Isotropic =    23.5935   Anisotropy =    18.5610
   XX=    27.1974   YX=    -7.3340   ZX=    -6.4740
   XY=    -7.6963   YY=    25.3010   ZY=     5.1996
   XZ=    -2.7438   YZ=     2.9658   ZZ=    18.2821
   Eigenvalues:    16.1384    18.6745    35.9675
     41  H    Isotropic =    23.4023   Anisotropy =     9.8956
   XX=    21.7724   YX=     1.0831   ZX=    -3.7976
   XY=     1.1783   YY=    26.5660   ZY=    -4.1205
   XZ=    -3.1713   YZ=    -4.2631   ZZ=    21.8686
   Eigenvalues:    17.6833    22.5242    29.9994
     42  H    Isotropic =    23.3014   Anisotropy =    14.6842
   XX=    27.2649   YX=    -1.0909   ZX=    -6.8212
   XY=    -0.7426   YY=    18.4444   ZY=     1.1848
   XZ=    -6.8854   YZ=     3.6142   ZZ=    24.1950
   Eigenvalues:    17.0875    19.7258    33.0909
     43  H    Isotropic =    22.5283   Anisotropy =    11.9620
   XX=    21.9590   YX=     7.3223   ZX=     0.1051
   XY=     5.3911   YY=    24.6517   ZY=     2.4925
   XZ=    -1.7020   YZ=     5.2090   ZZ=    20.9741
   Eigenvalues:    15.1057    21.9762    30.5030
     44  H    Isotropic =    23.0936   Anisotropy =    10.1306
   XX=    29.2154   YX=    -1.6532   ZX=     0.8726
   XY=    -2.1650   YY=    22.4413   ZY=    -0.7930
   XZ=     1.3995   YZ=    -0.5111   ZZ=    17.6240
   Eigenvalues:    17.4673    21.9661    29.8473
     45  H    Isotropic =    22.3370   Anisotropy =     8.2126
   XX=    22.8054   YX=    -2.6872   ZX=    -0.1021
   XY=    -0.1528   YY=    27.0098   ZY=    -0.9326
   XZ=     2.3979   YZ=    -2.4842   ZZ=    17.1959
   Eigenvalues:    16.7688    22.4302    27.8121
     46  H    Isotropic =    22.9316   Anisotropy =    15.0032
   XX=    24.3139   YX=    -6.6770   ZX=     2.1217
   XY=    -6.7421   YY=    27.5198   ZY=     0.4630
   XZ=    -2.4833   YZ=     2.7522   ZZ=    16.9613
   Eigenvalues:    16.5498    19.3113    32.9338
     47  H    Isotropic =    23.0136   Anisotropy =     9.1409
   XX=    22.1973   YX=    -0.5280   ZX=    -4.2160
   XY=    -0.4019   YY=    21.0765   ZY=    -2.2265
   XZ=    -4.7373   YZ=    -2.1296   ZZ=    25.7671
   Eigenvalues:    18.1921    21.7412    29.1075
     48  H    Isotropic =    22.7310   Anisotropy =    11.7532
   XX=    19.5001   YX=     0.2137   ZX=     0.7869
   XY=     0.3399   YY=    28.0192   ZY=    -4.9229
   XZ=     0.7121   YZ=    -5.1150   ZZ=    20.6738
   Eigenvalues:    17.7643    19.8623    30.5665
     49  H    Isotropic =    23.2963   Anisotropy =    15.3578
   XX=    30.4529   YX=     6.5891   ZX=     2.6131
   XY=     3.7727   YY=    21.5013   ZY=    -0.5452
   XZ=     4.2293   YZ=     1.5701   ZZ=    17.9349
   Eigenvalues:    16.8426    19.5115    33.5349
     50  H    Isotropic =    23.0348   Anisotropy =     9.8159
   XX=    25.4644   YX=    -3.8762   ZX=    -0.2447
   XY=    -4.3807   YY=    23.7410   ZY=     3.4529
   XZ=    -0.2345   YZ=     4.1617   ZZ=    19.8988
   Eigenvalues:    17.0064    22.5192    29.5787
     51  H    Isotropic =    22.2753   Anisotropy =    11.8425
   XX=    19.7223   YX=     4.2412   ZX=     1.7147
   XY=     3.7536   YY=    25.0605   ZY=     3.8123
   XZ=     1.3080   YZ=     5.6736   ZZ=    22.0429
   Eigenvalues:    17.2434    19.4121    30.1702
     52  C    Isotropic =   115.9934   Anisotropy =    42.0810
   XX=   127.2492   YX=   -18.2670   ZX=     4.4940
   XY=   -22.3928   YY=   114.8822   ZY=    -9.4454
   XZ=     1.7507   YZ=    -9.1943   ZZ=   105.8486
   Eigenvalues:    96.0448   107.8879   144.0474
     53  H    Isotropic =    30.6013   Anisotropy =    17.6691
   XX=    36.3078   YX=     6.1706   ZX=     6.8256
   XY=     5.8715   YY=    25.4040   ZY=     2.7769
   XZ=     5.0757   YZ=     2.2855   ZZ=    30.0922
   Eigenvalues:    22.7313    26.6920    42.3807
     54  H    Isotropic =    27.4419   Anisotropy =     4.4066
   XX=    25.9818   YX=     4.9095   ZX=     1.7733
   XY=     2.3354   YY=    27.3293   ZY=    -1.1865
   XZ=     1.1279   YZ=    -1.6888   ZZ=    29.0146
   Eigenvalues:    22.3496    29.5965    30.3796
     55  C    Isotropic =   118.2417   Anisotropy =    41.4081
   XX=   130.4582   YX=    -9.5116   ZX=   -15.2840
   XY=   -19.0314   YY=   107.9938   ZY=     7.3847
   XZ=   -13.1985   YZ=     6.3811   ZZ=   116.2732
   Eigenvalues:   101.0645   107.8136   145.8471
     56  H    Isotropic =    27.9721   Anisotropy =    12.6598
   XX=    24.0216   YX=     3.5987   ZX=     0.9317
   XY=     0.2669   YY=    28.9561   ZY=    -3.9746
   XZ=     2.0796   YZ=    -8.7996   ZZ=    30.9386
   Eigenvalues:    21.2902    26.2142    36.4120
     57  N    Isotropic =   192.0858   Anisotropy =    55.5833
   XX=   217.6656   YX=   -10.3257   ZX=    18.5743
   XY=   -16.9584   YY=   174.8624   ZY=    -8.3171
   XZ=    16.0889   YZ=    -4.5935   ZZ=   183.7295
   Eigenvalues:   170.6040   176.5120   229.1414
     58  C    Isotropic =   137.2117   Anisotropy =    58.5923
   XX=   120.2945   YX=   -15.1686   ZX=   -14.8086
   XY=   -12.7019   YY=   146.0939   ZY=    24.4611
   XZ=   -12.1935   YZ=    23.2874   ZZ=   145.2467
   Eigenvalues:   113.5676   121.7942   176.2732
     59  C    Isotropic =   138.3989   Anisotropy =    63.4166
   XX=   150.8589   YX=    30.7029   ZX=    18.3594
   XY=    27.3836   YY=   135.8871   ZY=     9.9077
   XZ=    17.1970   YZ=     7.8751   ZZ=   128.4508
   Eigenvalues:   111.9362   122.5840   180.6767
     60  H    Isotropic =    29.6588   Anisotropy =     9.7845
   XX=    30.5335   YX=    -5.1224   ZX=     2.5819
   XY=    -6.2141   YY=    30.2288   ZY=     0.5304
   XZ=     0.7593   YZ=     0.0089   ZZ=    28.2142
   Eigenvalues:    24.2365    28.5580    36.1818
     61  H    Isotropic =    29.7291   Anisotropy =     7.6149
   XX=    32.7055   YX=    -2.5919   ZX=     1.4542
   XY=    -3.4074   YY=    29.5944   ZY=     3.5428
   XZ=    -1.1708   YZ=     2.2766   ZZ=    26.8873
   Eigenvalues:    24.6154    29.7661    34.8056
     62  H    Isotropic =    31.0694   Anisotropy =     8.4567
   XX=    30.5342   YX=    -0.2041   ZX=    -0.4136
   XY=    -3.0636   YY=    26.7691   ZY=     4.2469
   XZ=    -1.8979   YZ=    -0.1387   ZZ=    35.9049
   Eigenvalues:    25.9124    30.5885    36.7072
     63  H    Isotropic =    29.6558   Anisotropy =    12.3435
   XX=    34.0220   YX=    -2.0150   ZX=     5.2775
   XY=     0.3480   YY=    25.9764   ZY=    -0.3090
   XZ=     6.1832   YZ=    -1.6303   ZZ=    28.9691
   Eigenvalues:    25.0709    26.0117    37.8849
     64  H    Isotropic =    30.1371   Anisotropy =     8.3247
   XX=    32.0152   YX=     3.8561   ZX=    -1.9509
   XY=     3.6830   YY=    30.6903   ZY=    -3.5457
   XZ=     2.2477   YZ=    -2.7541   ZZ=    27.7059
   Eigenvalues:    24.9281    29.7964    35.6869
     65  H    Isotropic =    29.4392   Anisotropy =     6.9209
   XX=    32.2523   YX=    -0.6507   ZX=     1.8354
   XY=     1.2555   YY=    25.9614   ZY=     3.6322
   XZ=     2.4819   YZ=     2.2607   ZZ=    30.1037
   Eigenvalues:    24.3588    29.9056    34.0531
     66  C    Isotropic =    52.7170   Anisotropy =   186.4901
   XX=   137.6488   YX=    62.7520   ZX=    61.2287
   XY=    62.5127   YY=     9.3222   ZY=   -27.0551
   XZ=    60.7239   YZ=   -27.2437   ZZ=    11.1801
   Eigenvalues:   -56.3087    37.4159   177.0437
     67  C    Isotropic =    50.6487   Anisotropy =   188.5564
   XX=   150.5378   YX=    32.7531   ZX=    49.4437
   XY=    33.3955   YY=    38.3432   ZY=    39.9139
   XZ=    52.0431   YZ=    38.4728   ZZ=   -36.9349
   Eigenvalues:   -59.6779    35.2711   176.3530
     68  C    Isotropic =    52.6928   Anisotropy =   191.0162
   XX=   154.1464   YX=    53.5691   ZX=    25.9140
   XY=    62.8077   YY=   -30.6083   ZY=    32.0523
   XZ=    30.3773   YZ=    33.0261   ZZ=    34.5404
   Eigenvalues:   -54.0510    32.0925   180.0370
     69  C    Isotropic =    30.0995   Anisotropy =   206.6590
   XX=   128.7264   YX=    61.4280   ZX=    66.5909
   XY=    59.7401   YY=   -22.6345   ZY=    -6.4983
   XZ=    60.2309   YZ=   -12.7882   ZZ=   -15.7934
   Eigenvalues:   -68.0360    -9.5377   167.8722
     70  C    Isotropic =    51.1800   Anisotropy =   173.2809
   XX=   144.8204   YX=    22.2898   ZX=    48.6434
   XY=    27.8435   YY=    38.3177   ZY=    38.4019
   XZ=    50.0604   YZ=    32.5845   ZZ=   -29.5981
   Eigenvalues:   -51.7963    38.6357   166.7006
     71  C    Isotropic =    51.5941   Anisotropy =   188.3110
   XX=   149.6312   YX=    55.0499   ZX=    30.9796
   XY=    57.1412   YY=   -38.2100   ZY=    37.0981
   XZ=    30.6933   YZ=    37.2419   ZZ=    43.3611
   Eigenvalues:   -61.4832    39.1307   177.1348
     72  H    Isotropic =    24.0607   Anisotropy =     4.6697
   XX=    20.3669   YX=    -0.3898   ZX=    -0.0788
   XY=    -0.2202   YY=    24.7570   ZY=    -0.5392
   XZ=    -0.3319   YZ=    -0.5048   ZZ=    27.0583
   Eigenvalues:    20.3371    24.6712    27.1739
     73  H    Isotropic =    23.8542   Anisotropy =     4.6222
   XX=    20.8303   YX=    -1.4513   ZX=    -0.1235
   XY=    -1.6047   YY=    24.9460   ZY=     1.4158
   XZ=    -0.4702   YZ=     1.1369   ZZ=    25.7862
   Eigenvalues:    20.3223    24.3045    26.9357
     74  H    Isotropic =    23.6009   Anisotropy =     9.7981
   XX=    21.6452   YX=    -0.3862   ZX=    -0.8212
   XY=    -0.3032   YY=    19.5425   ZY=     2.3419
   XZ=    -2.2370   YZ=     0.7369   ZZ=    29.6151
   Eigenvalues:    19.3062    21.3635    30.1330
     75  H    Isotropic =    26.7797   Anisotropy =     6.6250
   XX=    22.9010   YX=    -0.3152   ZX=    -1.9952
   XY=    -0.7606   YY=    26.7406   ZY=    -1.3753
   XZ=    -1.8921   YZ=     0.2460   ZZ=    30.6975
   Eigenvalues:    22.3459    26.7969    31.1964
     76  H    Isotropic =    24.3369   Anisotropy =     8.1033
   XX=    21.0252   YX=    -0.5242   ZX=    -1.2061
   XY=     0.0546   YY=    23.1765   ZY=     1.5280
   XZ=    -1.7167   YZ=     2.6317   ZZ=    28.8089
   Eigenvalues:    20.7495    22.5221    29.7390
     77  N    Isotropic =   192.0286   Anisotropy =    58.2817
   XX=   219.3185   YX=     0.7896   ZX=   -22.1433
   XY=    -6.3121   YY=   171.3775   ZY=     1.1243
   XZ=   -23.6447   YZ=    -5.7161   ZZ=   185.3899
   Eigenvalues:   169.0774   176.1254   230.8831
     78  H    Isotropic =    29.1676   Anisotropy =    14.3859
   XX=    24.1939   YX=     1.1606   ZX=     0.0366
   XY=    -0.7141   YY=    24.8627   ZY=    -3.9361
   XZ=     2.3176   YZ=     0.4282   ZZ=    38.4461
   Eigenvalues:    23.9168    24.8278    38.7581
     79  C    Isotropic =   139.4111   Anisotropy =    61.7824
   XX=   154.1955   YX=    33.8288   ZX=     4.9768
   XY=    31.8549   YY=   139.1138   ZY=    -0.1774
   XZ=     3.3367   YZ=     1.6705   ZZ=   124.9242
   Eigenvalues:   112.6256   125.0084   180.5994
     80  C    Isotropic =   140.8105   Anisotropy =    53.1229
   XX=   126.0866   YX=   -19.7156   ZX=     2.8586
   XY=   -14.0572   YY=   169.8973   ZY=    -5.1002
   XZ=     2.3854   YZ=    -4.4180   ZZ=   126.4476
   Eigenvalues:   120.1775   126.0282   176.2258
     81  H    Isotropic =    30.2544   Anisotropy =     8.0695
   XX=    32.4221   YX=     0.6158   ZX=     4.9998
   XY=     3.0665   YY=    25.9580   ZY=    -0.1264
   XZ=     1.2765   YZ=    -0.9458   ZZ=    32.3831
   Eigenvalues:    25.1846    29.9446    35.6341
     82  H    Isotropic =    29.5185   Anisotropy =     6.5820
   XX=    32.7297   YX=     0.1943   ZX=    -1.1812
   XY=     2.3335   YY=    30.4384   ZY=    -3.2555
   XZ=    -0.9735   YZ=    -2.4050   ZZ=    25.3873
   Eigenvalues:    24.0934    30.5555    33.9065
     83  H    Isotropic =    29.5135   Anisotropy =    12.0892
   XX=    34.1502   YX=     1.1834   ZX=    -4.8937
   XY=     3.6813   YY=    25.3425   ZY=    -1.9321
   XZ=    -4.5095   YZ=    -0.7042   ZZ=    29.0479
   Eigenvalues:    24.7101    26.2575    37.5730
     84  H    Isotropic =    29.6553   Anisotropy =     6.1530
   XX=    30.2795   YX=    -0.8650   ZX=     2.3447
   XY=    -3.1508   YY=    27.9778   ZY=    -4.8702
   XZ=     0.9786   YZ=     0.3336   ZZ=    30.7085
   Eigenvalues:    26.3900    28.8185    33.7573
     85  H    Isotropic =    29.3729   Anisotropy =    10.3521
   XX=    30.6842   YX=    -2.4667   ZX=    -4.4995
   XY=    -4.4510   YY=    28.7458   ZY=     1.9704
   XZ=    -4.3342   YZ=     1.9596   ZZ=    28.6886
   Eigenvalues:    24.9727    26.8715    36.2743
     86  H    Isotropic =    29.3320   Anisotropy =     7.4057
   XX=    33.0811   YX=    -1.0340   ZX=    -1.6728
   XY=    -2.1494   YY=    30.7713   ZY=     0.9679
   XZ=    -1.6333   YZ=     1.1400   ZZ=    24.1435
   Eigenvalues:    23.7619    29.9649    34.2691
     87  C    Isotropic =    52.1398   Anisotropy =   186.1144
   XX=   144.1790   YX=    78.3483   ZX=   -12.0669
   XY=    80.0461   YY=   -22.2473   ZY=    10.9849
   XZ=   -12.2883   YZ=    10.8597   ZZ=    34.4877
   Eigenvalues:   -56.2851    36.4884   176.2160
     88  C    Isotropic =    50.4415   Anisotropy =   188.8119
   XX=   155.4053   YX=    49.8581   ZX=   -16.6677
   XY=    53.3252   YY=    47.0936   ZY=    22.7022
   XZ=   -18.5341   YZ=    23.5807   ZZ=   -51.1743
   Eigenvalues:   -60.4634    35.4719   176.3161
     89  C    Isotropic =    52.2939   Anisotropy =   191.3064
   XX=   157.0804   YX=    56.0643   ZX=    12.5647
   XY=    65.4555   YY=    17.4011   ZY=   -40.3522
   XZ=    14.0109   YZ=   -41.7394   ZZ=   -17.5999
   Eigenvalues:   -55.0081    32.0582   179.8315
     90  C    Isotropic =    29.9086   Anisotropy =   204.9891
   XX=   133.3489   YX=    84.7475   ZX=   -16.5346
   XY=    76.1156   YY=   -33.8263   ZY=     0.2288
   XZ=   -11.4152   YZ=     5.3710   ZZ=    -9.7967
   Eigenvalues:   -67.3139    -9.5282   166.5681
     91  C    Isotropic =    49.5480   Anisotropy =   173.4152
   XX=   145.8699   YX=    45.5678   ZX=   -24.9136
   XY=    46.9960   YY=    47.2480   ZY=    18.6019
   XZ=   -21.6635   YZ=    22.6012   ZZ=   -44.4740
   Eigenvalues:   -54.5841    38.0699   165.1581
     92  C    Isotropic =    50.9925   Anisotropy =   189.2792
   XX=   155.2353   YX=    56.5804   ZX=     4.2747
   XY=    59.8028   YY=    16.1758   ZY=   -49.9817
   XZ=     6.1774   YZ=   -49.8227   ZZ=   -18.4337
   Eigenvalues:   -61.2024    37.0011   177.1786
     93  H    Isotropic =    23.7923   Anisotropy =     3.6985
   XX=    20.3294   YX=    -0.3880   ZX=    -0.0315
   XY=    -0.2618   YY=    24.9786   ZY=    -0.4371
   XZ=     0.1842   YZ=    -0.5286   ZZ=    26.0690
   Eigenvalues:    20.3065    24.8125    26.2580
     94  H    Isotropic =    23.4471   Anisotropy =     9.9541
   XX=    21.4096   YX=    -0.4460   ZX=     0.3496
   XY=    -1.1193   YY=    24.6589   ZY=    -6.0166
   XZ=     1.6267   YZ=    -4.8511   ZZ=    24.2729
   Eigenvalues:    19.0162    21.2421    30.0832
     95  H    Isotropic =    24.1591   Anisotropy =     5.9915
   XX=    20.1021   YX=    -0.5286   ZX=     1.7488
   XY=    -2.1264   YY=    27.9343   ZY=     2.0727
   XZ=     4.0170   YZ=    -1.0677   ZZ=    24.4410
   Eigenvalues:    18.4531    25.8708    28.1535
     96  C    Isotropic =    48.5159   Anisotropy =    15.6102
   XX=    46.9774   YX=    -1.2999   ZX=     1.7997
   XY=    -1.7354   YY=    56.6900   ZY=    -6.0161
   XZ=     0.1005   YZ=    -5.5087   ZZ=    41.8803
   Eigenvalues:    39.8786    46.7464    58.9227
     97  F    Isotropic =   220.8587   Anisotropy =   147.8315
   XX=   170.5229   YX=    27.4715   ZX=    72.2613
   XY=    27.1163   YY=   223.6944   ZY=    26.2774
   XZ=    70.1824   YZ=    26.1167   ZZ=   268.3589
   Eigenvalues:   131.3563   211.8069   319.4131
     98  F    Isotropic =   250.1590   Anisotropy =   135.1685
   XX=   277.2086   YX=   -48.8535   ZX=    43.7763
   XY=   -45.0920   YY=   297.0658   ZY=   -14.2032
   XZ=    25.7767   YZ=    -3.0014   ZZ=   176.2027
   Eigenvalues:   165.0979   245.1079   340.2713
     99  F    Isotropic =   242.3779   Anisotropy =   142.0119
   XX=   264.4115   YX=    67.3315   ZX=    -9.4775
   XY=    52.0939   YY=   244.1065   ZY=   -54.4343
   XZ=   -18.6591   YZ=   -64.9179   ZZ=   218.6157
   Eigenvalues:   161.4422   228.6390   337.0525
    100  C    Isotropic =    48.9189   Anisotropy =    12.3845
   XX=    49.8854   YX=    -4.5029   ZX=    -1.1651
   XY=    -4.2938   YY=    51.3018   ZY=     5.5034
   XZ=    -1.5417   YZ=     4.9559   ZZ=    45.5694
   Eigenvalues:    42.2773    47.3041    57.1752
    101  F    Isotropic =   221.6944   Anisotropy =   148.2229
   XX=   228.2607   YX=   -44.5181   ZX=    73.6457
   XY=   -45.8384   YY=   182.4025   ZY=     8.2902
   XZ=    74.1629   YZ=     7.5932   ZZ=   254.4199
   Eigenvalues:   132.6432   211.9303   320.5097
    102  F    Isotropic =   240.1681   Anisotropy =   144.2953
   XX=   226.1101   YX=    17.4077   ZX=    23.7949
   XY=    17.0655   YY=   323.0312   ZY=    47.5081
   XZ=    12.5584   YZ=    29.8411   ZZ=   171.3631
   Eigenvalues:   159.1781   224.9613   336.3650
    103  F    Isotropic =   251.8325   Anisotropy =   123.9046
   XX=   307.9727   YX=   -16.6985   ZX=   -32.9758
   XY=    -0.9285   YY=   197.7794   ZY=    41.8983
   XZ=   -46.3709   YZ=    47.8015   ZZ=   249.7453
   Eigenvalues:   170.7237   250.3382   334.4356
    104  C    Isotropic =    48.7535   Anisotropy =    15.0390
   XX=    45.1712   YX=     5.0860   ZX=     5.6961
   XY=     4.8706   YY=    53.9111   ZY=     2.7493
   XZ=     5.3072   YZ=     3.9163   ZZ=    47.1781
   Eigenvalues:    40.3161    47.1648    58.7795
    105  F    Isotropic =   239.2255   Anisotropy =   141.5155
   XX=   170.8950   YX=   -39.5343   ZX=    26.6258
   XY=   -24.8363   YY=   319.4349   ZY=   -25.5510
   XZ=    17.0674   YZ=   -22.4493   ZZ=   227.3464
   Eigenvalues:   159.8745   224.2327   333.5691
    106  F    Isotropic =   253.2057   Anisotropy =   130.7974
   XX=   252.2890   YX=    73.1892   ZX=    61.6363
   XY=    60.0937   YY=   237.4730   ZY=    -0.8820
   XZ=    45.8657   YZ=     8.6520   ZZ=   269.8551
   Eigenvalues:   165.9548   253.2583   340.4039
    107  F    Isotropic =   213.2635   Anisotropy =   141.1284
   XX=   163.1329   YX=    25.6255   ZX=   -58.1966
   XY=    27.7900   YY=   192.9312   ZY=    10.6613
   XZ=   -58.5323   YZ=     9.9075   ZZ=   283.7265
   Eigenvalues:   127.0779   205.3636   307.3491
    108  C    Isotropic =    48.4980   Anisotropy =    13.5082
   XX=    55.9266   YX=     4.1874   ZX=     2.2574
   XY=     3.6155   YY=    41.7153   ZY=     1.3296
   XZ=     2.0653   YZ=     0.7884   ZZ=    47.8522
   Eigenvalues:    40.6797    47.3109    57.5035
    109  F    Isotropic =   216.3176   Anisotropy =   148.4928
   XX=   208.1774   YX=    -0.7926   ZX=    21.4284
   XY=    -3.7212   YY=   246.1738   ZY=   -88.8803
   XZ=    19.7743   YZ=   -89.8781   ZZ=   194.6016
   Eigenvalues:   124.5976   209.0424   315.3127
    110  F    Isotropic =   246.9674   Anisotropy =   136.3132
   XX=   251.7951   YX=    55.6510   ZX=    45.0300
   XY=    66.1002   YY=   210.3939   ZY=    19.3632
   XZ=    58.1697   YZ=     5.1659   ZZ=   278.7133
   Eigenvalues:   162.6786   240.3808   337.8429
    111  F    Isotropic =   245.5306   Anisotropy =   134.4372
   XX=   298.9143   YX=   -12.2909   ZX=   -47.1837
   XY=   -24.2161   YY=   171.6951   ZY=    -5.5675
   XZ=   -52.3330   YZ=   -21.5784   ZZ=   265.9824
   Eigenvalues:   164.2662   237.1702   335.1554
    112  C    Isotropic =    48.5264   Anisotropy =    15.9439
   XX=    54.3682   YX=    -1.6713   ZX=    -7.1006
   XY=    -0.6550   YY=    45.1700   ZY=     5.0536
   XZ=    -7.1436   YZ=     3.2375   ZZ=    46.0412
   Eigenvalues:    40.0008    46.4228    59.1557
    113  F    Isotropic =   253.2879   Anisotropy =   133.1628
   XX=   282.1837   YX=   -39.0137   ZX=   -21.0006
   XY=   -47.6850   YY=   234.7818   ZY=    79.4191
   XZ=   -19.4430   YZ=    58.7316   ZZ=   242.8982
   Eigenvalues:   166.5752   251.2254   342.0631
    114  F    Isotropic =   218.2933   Anisotropy =   150.9913
   XX=   223.4056   YX=   -10.4391   ZX=    37.0670
   XY=    -7.1707   YY=   128.8863   ZY=   -12.9155
   XZ=    38.4582   YZ=   -13.1614   ZZ=   302.5879
   Eigenvalues:   127.5061   208.4196   318.9541
    115  F    Isotropic =   243.3243   Anisotropy =   141.6185
   XX=   269.5543   YX=    72.8433   ZX=   -19.8323
   XY=    90.7714   YY=   238.3318   ZY=    16.3527
   XZ=   -21.5965   YZ=     9.9739   ZZ=   222.0868
   Eigenvalues:   161.5998   230.6365   337.7366
    116  C    Isotropic =    48.7739   Anisotropy =    13.8665
   XX=    50.0099   YX=    -6.3237   ZX=     0.6255
   XY=    -6.4358   YY=    52.8179   ZY=     1.5313
   XZ=    -0.1649   YZ=     1.4521   ZZ=    43.4939
   Eigenvalues:    42.8225    45.4810    58.0182
    117  F    Isotropic =   223.4925   Anisotropy =   143.5350
   XX=   165.1062   YX=   -36.7049   ZX=    21.1778
   XY=   -37.4679   YY=   189.7230   ZY=    13.6612
   XZ=    21.0318   YZ=    14.1096   ZZ=   315.6484
   Eigenvalues:   134.8161   216.4790   319.1825
    118  F    Isotropic =   244.6816   Anisotropy =   138.5477
   XX=   198.7016   YX=    17.8028   ZX=    39.1621
   XY=     4.1815   YY=   334.6064   ZY=    18.6882
   XZ=    30.1070   YZ=     4.0923   ZZ=   200.7367
   Eigenvalues:   165.0696   231.9284   337.0467
    119  F    Isotropic =   247.4027   Anisotropy =   138.6067
   XX=   327.6100   YX=   -45.3727   ZX=    28.9574
   XY=   -31.0313   YY=   210.8504   ZY=    35.6089
   XZ=    12.4376   YZ=    32.7446   ZZ=   203.7476
   Eigenvalues:   162.6075   239.7934   339.8071
    120  C    Isotropic =    49.0232   Anisotropy =    13.9794
   XX=    44.7132   YX=    -0.8943   ZX=    -5.4175
   XY=    -1.6477   YY=    58.1165   ZY=     0.4474
   XZ=    -3.0900   YZ=     1.1070   ZZ=    44.2401
   Eigenvalues:    40.2109    48.5160    58.3428
    121  F    Isotropic =   245.5704   Anisotropy =   136.0628
   XX=   249.5391   YX=   -69.6011   ZX=   -66.7860
   XY=   -57.1504   YY=   245.4946   ZY=     4.2273
   XZ=   -50.1177   YZ=     9.4702   ZZ=   241.6776
   Eigenvalues:   163.8234   236.6089   336.2790
    122  F    Isotropic =   249.7842   Anisotropy =   136.6474
   XX=   192.6431   YX=    62.1348   ZX=   -36.7285
   XY=    43.4618   YY=   317.1453   ZY=   -11.2726
   XZ=   -21.7497   YZ=   -11.3164   ZZ=   239.5641
   Eigenvalues:   165.5115   242.9586   340.8824
    123  F    Isotropic =   218.0028   Anisotropy =   143.8275
   XX=   146.4373   YX=   -21.9756   ZX=    39.9601
   XY=   -25.4142   YY=   205.0699   ZY=    -8.7335
   XZ=    39.9886   YZ=    -7.8428   ZZ=   302.5012
   Eigenvalues:   130.7275   209.3931   313.8878
    124  C    Isotropic =    49.3504   Anisotropy =    16.9214
   XX=    50.4251   YX=     8.7737   ZX=     2.8393
   XY=     8.9117   YY=    51.4784   ZY=     1.7502
   XZ=     2.8347   YZ=     2.3733   ZZ=    46.1476
   Eigenvalues:    41.9726    45.4471    60.6313
    125  F    Isotropic =   254.8039   Anisotropy =   126.5595
   XX=   187.1157   YX=    40.4283   ZX=   -10.5743
   XY=    56.9288   YY=   307.2761   ZY=    39.7817
   XZ=    -0.5213   YZ=    30.8576   ZZ=   270.0200
   Eigenvalues:   166.8788   258.3561   339.1769
    126  F    Isotropic =   222.6771   Anisotropy =   137.2580
   XX=   206.1406   YX=    16.1509   ZX=    62.3711
   XY=    14.1734   YY=   197.3748   ZY=   -51.0636
   XZ=    61.6520   YZ=   -46.6919   ZZ=   264.5160
   Eigenvalues:   137.9820   215.8669   314.1825
    127  F    Isotropic =   230.3469   Anisotropy =   151.1232
   XX=   295.3879   YX=    47.6021   ZX=   -56.0551
   XY=    36.0881   YY=   168.3775   ZY=     8.4531
   XZ=   -48.6709   YZ=     3.3995   ZZ=   227.2754
   Eigenvalues:   149.0652   210.8799   331.0957
    128  H    Isotropic =    23.6882   Anisotropy =     5.0313
   XX=    20.7081   YX=    -1.0763   ZX=    -0.7025
   XY=    -1.3695   YY=    26.6681   ZY=    -0.8208
   XZ=    -0.5560   YZ=    -0.7710   ZZ=    23.6884
   Eigenvalues:    20.2885    23.7337    27.0424
    129  H    Isotropic =    23.6951   Anisotropy =     7.2983
   XX=    20.5423   YX=    -1.0901   ZX=     1.6875
   XY=    -1.2696   YY=    26.6677   ZY=    -2.0905
   XZ=     2.3569   YZ=    -2.6731   ZZ=    23.8754
   Eigenvalues:    19.5880    22.9368    28.5607
    130  H    Isotropic =    30.0302   Anisotropy =    18.2810
   XX=    36.6312   YX=     8.6569   ZX=    -1.3979
   XY=     7.5780   YY=    29.3445   ZY=    -2.6573
   XZ=    -0.9018   YZ=    -2.7774   ZZ=    24.1150
   Eigenvalues:    22.2882    25.5849    42.2176
    131  H    Isotropic =    27.4475   Anisotropy =     4.0650
   XX=    26.4180   YX=     4.7459   ZX=     1.4024
   XY=     2.5582   YY=    26.5095   ZY=    -0.6713
   XZ=     0.0282   YZ=    -1.1697   ZZ=    29.4151
   Eigenvalues:    22.6148    29.5702    30.1575
 End of Minotr F.D. properties file   721 does not exist.
 End of Minotr F.D. properties file   722 does not exist.
 End of Minotr F.D. properties file   788 does not exist.
 Hyperfine terms turned off by default for NAtoms > 100.

 **********************************************************************

            Population analysis using the SCF density.

 **********************************************************************

 Orbital symmetries:
       Occupied  (A) (A) (A) (A) (A) (A) (A) (A) (A) (A) (A) (A)
                 (A) (A) (A) (A) (A) (A) (A) (A) (A) (A) (A) (A)
                 (A) (A) (A) (A) (A) (A) (A) (A) (A) (A) (A) (A)
                 (A) (A) (A) (A) (A) (A) (A) (A) (A) (A) (A) (A)
                 (A) (A) (A) (A) (A) (A) (A) (A) (A) (A) (A) (A)
                 (A) (A) (A) (A) (A) (A) (A) (A) (A) (A) (A) (A)
                 (A) (A) (A) (A) (A) (A) (A) (A) (A) (A) (A) (A)
                 (A) (A) (A) (A) (A) (A) (A) (A) (A) (A) (A) (A)
                 (A) (A) (A) (A) (A) (A) (A) (A) (A) (A) (A) (A)
                 (A) (A) (A) (A) (A) (A) (A) (A) (A) (A) (A) (A)
                 (A) (A) (A) (A) (A) (A) (A) (A) (A) (A) (A) (A)
                 (A) (A) (A) (A) (A) (A) (A) (A) (A) (A) (A) (A)
                 (A) (A) (A) (A) (A) (A) (A) (A) (A) (A) (A) (A)
                 (A) (A) (A) (A) (A) (A) (A) (A) (A) (A) (A) (A)
                 (A) (A) (A) (A) (A) (A) (A) (A) (A) (A) (A) (A)
                 (A) (A) (A) (A) (A) (A) (A) (A) (A) (A) (A) (A)
                 (A) (A) (A) (A) (A) (A) (A) (A) (A) (A) (A) (A)
                 (A) (A) (A) (A) (A) (A) (A) (A) (A) (A) (A) (A)
                 (A) (A) (A) (A) (A) (A) (A) (A) (A) (A) (A) (A)
                 (A) (A) (A) (A) (A) (A) (A) (A) (A) (A) (A) (A)
                 (A) (A) (A) (A) (A) (A) (A) (A) (A) (A) (A) (A)
                 (A) (A) (A) (A) (A) (A) (A) (A) (A) (A) (A) (A)
                 (A) (A) (A) (A) (A) (A) (A) (A) (A) (A) (A) (A)
                 (A) (A) (A) (A) (A) (A) (A) (A) (A) (A) (A) (A)
                 (A) (A) (A) (A) (A) (A) (A) (A) (A) (A) (A) (A)
                 (A) (A) (A) (A) (A) (A) (A) (A) (A) (A) (A) (A)
                 (A) (A) (A) (A) (A) (A) (A) (A) (A) (A) (A) (A)
                 (A) (A) (A) (A) (A) (A) (A) (A) (A) (A) (A) (A)
                 (A) (A) (A)
       Virtual   (A) (A) (A) (A) (A) (A) (A) (A) (A) (A) (A) (A)
                 (A) (A) (A) (A) (A) (A) (A) (A) (A) (A) (A) (A)
                 (A) (A) (A) (A) (A) (A) (A) (A) (A) (A) (A) (A)
                 (A) (A) (A) (A) (A) (A) (A) (A) (A) (A) (A) (A)
                 (A) (A) (A) (A) (A) (A) (A) (A) (A) (A) (A) (A)
                 (A) (A) (A) (A) (A) (A) (A) (A) (A) (A) (A) (A)
                 (A) (A) (A) (A) (A) (A) (A) (A) (A) (A) (A) (A)
                 (A) (A) (A) (A) (A) (A) (A) (A) (A) (A) (A) (A)
                 (A) (A) (A) (A) (A) (A) (A) (A) (A) (A) (A) (A)
                 (A) (A) (A) (A) (A) (A) (A) (A) (A) (A) (A) (A)
                 (A) (A) (A) (A) (A) (A) (A) (A) (A) (A) (A) (A)
                 (A) (A) (A) (A) (A) (A) (A) (A) (A) (A) (A) (A)
                 (A) (A) (A) (A) (A) (A) (A) (A) (A) (A) (A) (A)
                 (A) (A) (A) (A) (A) (A) (A) (A) (A) (A) (A) (A)
                 (A) (A) (A) (A) (A) (A) (A) (A) (A) (A) (A) (A)
                 (A) (A) (A) (A) (A) (A) (A) (A) (A) (A) (A) (A)
                 (A) (A) (A) (A) (A) (A) (A) (A) (A) (A) (A) (A)
                 (A) (A) (A) (A) (A) (A) (A) (A) (A) (A) (A) (A)
                 (A) (A) (A) (A) (A) (A) (A) (A) (A) (A) (A) (A)
                 (A) (A) (A) (A) (A) (A) (A) (A) (A) (A) (A) (A)
                 (A) (A) (A) (A) (A) (A) (A) (A) (A) (A) (A) (A)
                 (A) (A) (A) (A) (A) (A) (A) (A) (A) (A) (A) (A)
                 (A) (A) (A) (A) (A) (A) (A) (A) (A) (A) (A) (A)
                 (A) (A) (A) (A) (A) (A) (A) (A) (A) (A) (A) (A)
                 (A) (A) (A) (A) (A) (A) (A) (A) (A) (A) (A) (A)
                 (A) (A) (A) (A) (A) (A) (A) (A) (A) (A) (A) (A)
                 (A) (A) (A) (A) (A) (A) (A) (A) (A) (A) (A) (A)
                 (A) (A) (A) (A) (A) (A) (A) (A) (A) (A) (A) (A)
                 (A) (A) (A) (A) (A) (A) (A) (A) (A) (A) (A) (A)
                 (A) (A) (A) (A) (A) (A) (A) (A) (A) (A) (A) (A)
                 (A) (A) (A) (A) (A) (A) (A) (A) (A) (A) (A) (A)
                 (A) (A) (A) (A) (A) (A) (A) (A) (A) (A) (A) (A)
                 (A) (A) (A) (A) (A) (A) (A) (A) (A) (A) (A) (A)
                 (A) (A) (A) (A) (A) (A) (A) (A) (A) (A) (A) (A)
                 (A) (A) (A) (A) (A) (A) (A) (A) (A) (A) (A) (A)
                 (A) (A) (A) (A) (A) (A) (A) (A) (A) (A) (A) (A)
                 (A) (A) (A) (A) (A) (A) (A) (A) (A) (A) (A) (A)
                 (A) (A) (A) (A) (A) (A) (A) (A) (A) (A) (A) (A)
                 (A) (A) (A) (A) (A) (A) (A) (A) (A) (A) (A) (A)
                 (A) (A) (A) (A) (A) (A) (A) (A) (A) (A) (A) (A)
                 (A) (A) (A) (A) (A) (A) (A) (A) (A) (A) (A) (A)
                 (A) (A) (A) (A) (A) (A) (A) (A) (A) (A) (A) (A)
                 (A) (A) (A) (A) (A) (A) (A) (A) (A) (A) (A) (A)
                 (A) (A) (A) (A) (A) (A) (A) (A) (A) (A) (A) (A)
                 (A) (A) (A) (A) (A) (A) (A) (A) (A) (A) (A) (A)
                 (A) (A) (A) (A) (A) (A) (A) (A) (A) (A) (A) (A)
                 (A) (A) (A) (A) (A) (A) (A) (A) (A) (A) (A) (A)
                 (A) (A) (A) (A) (A) (A) (A) (A) (A) (A) (A) (A)
                 (A) (A) (A) (A) (A) (A) (A) (A) (A) (A) (A) (A)
                 (A) (A) (A) (A) (A) (A) (A) (A) (A) (A) (A) (A)
                 (A) (A) (A) (A) (A) (A) (A) (A) (A) (A) (A) (A)
                 (A) (A) (A) (A) (A) (A) (A) (A) (A) (A) (A) (A)
                 (A) (A) (A) (A) (A) (A) (A) (A) (A) (A) (A) (A)
                 (A) (A) (A) (A) (A) (A) (A) (A) (A) (A) (A) (A)
                 (A) (A) (A) (A) (A) (A) (A) (A) (A) (A) (A) (A)
                 (A) (A) (A) (A) (A) (A) (A) (A) (A) (A) (A) (A)
                 (A) (A) (A) (A) (A) (A) (A) (A) (A) (A) (A) (A)
                 (A) (A) (A) (A) (A) (A) (A) (A) (A) (A) (A) (A)
                 (A) (A) (A) (A) (A) (A) (A) (A) (A) (A) (A) (A)
                 (A) (A) (A) (A) (A) (A) (A) (A) (A) (A) (A) (A)
                 (A) (A) (A) (A) (A) (A) (A) (A) (A) (A) (A) (A)
                 (A) (A) (A) (A) (A) (A) (A) (A) (A) (A) (A) (A)
                 (A) (A) (A) (A) (A) (A) (A) (A) (A) (A) (A) (A)
[...]
  2361. RY*(  25) C 108                  0.00000     3.41306   
  2362. RY*(  26) C 108                  0.00001     2.66016   
  2363. RY*(   1) F 109                  0.00077     3.23547   
  2364. RY*(   2) F 109                  0.00055     1.15016   
  2365. RY*(   3) F 109                  0.00043     1.01100   
  2366. RY*(   4) F 109                  0.00028     2.70208   
  2367. RY*(   5) F 109                  0.00016     3.03693   
  2368. RY*(   6) F 109                  0.00014     2.95292   
  2369. RY*(   7) F 109                  0.00005     2.86259   
  2370. RY*(   8) F 109                  0.00003     2.80955   
  2371. RY*(   9) F 109                  0.00001     3.60538   
  2372. RY*(  10) F 109                  0.00001     3.06364   
  2373. RY*(  11) F 109                  0.00000     8.20669   
  2374. RY*(  12) F 109                  0.00001     3.13889   
  2375. RY*(  13) F 109                  0.00000     7.88588   
  2376. RY*(  14) F 109                  0.00000    55.33148   
  2377. RY*(  15) F 109                  0.00000     8.39112   
  2378. RY*(  16) F 109                  0.00000     3.25140   
  2379. RY*(  17) F 109                  0.00000     8.16774   
  2380. RY*(  18) F 109                  0.00001     3.52770   
  2381. RY*(  19) F 109                  0.00000     7.69292   
  2382. RY*(  20) F 109                  0.00000     6.94346   
  2383. RY*(  21) F 109                  0.00000     6.64713   
  2384. RY*(  22) F 109                  0.00000     6.73017   
  2385. RY*(  23) F 109                  0.00000     6.75861   
  2386. RY*(  24) F 109                  0.00000     6.86235   
  2387. RY*(  25) F 109                  0.00000     6.85422   
  2388. RY*(  26) F 109                  0.00000     6.83654   
  2389. RY*(   1) F 110                  0.00073     3.86939   
  2390. RY*(   2) F 110                  0.00051     1.13420   
  2391. RY*(   3) F 110                  0.00040     1.21052   
  2392. RY*(   4) F 110                  0.00022     2.63350   
  2393. RY*(   5) F 110                  0.00015     2.90129   
  2394. RY*(   6) F 110                  0.00006     2.65018   
  2395. RY*(   7) F 110                  0.00006     2.53318   
  2396. RY*(   8) F 110                  0.00004     2.73772   
  2397. RY*(   9) F 110                  0.00000     3.17237   
  2398. RY*(  10) F 110                  0.00001     2.15418   
  2399. RY*(  11) F 110                  0.00000     8.32641   
  2400. RY*(  12) F 110                  0.00001     3.02162   
  2401. RY*(  13) F 110                  0.00000     8.34600   
  2402. RY*(  14) F 110                  0.00000    55.40620   
  2403. RY*(  15) F 110                  0.00000     8.06135   
  2404. RY*(  16) F 110                  0.00001     3.04593   
  2405. RY*(  17) F 110                  0.00000     8.07301   
  2406. RY*(  18) F 110                  0.00001     3.56877   
  2407. RY*(  19) F 110                  0.00000     8.16694   
  2408. RY*(  20) F 110                  0.00000     6.89295   
  2409. RY*(  21) F 110                  0.00000     6.78837   
  2410. RY*(  22) F 110                  0.00000     6.81828   
  2411. RY*(  23) F 110                  0.00000     6.86109   
  2412. RY*(  24) F 110                  0.00000     6.90712   
  2413. RY*(  25) F 110                  0.00000     6.82940   
  2414. RY*(  26) F 110                  0.00000     6.86578   
  2415. RY*(   1) F 111                  0.00073     3.76430   
  2416. RY*(   2) F 111                  0.00054     1.09443   
  2417. RY*(   3) F 111                  0.00041     1.19050   
  2418. RY*(   4) F 111                  0.00024     2.62388   
  2419. RY*(   5) F 111                  0.00015     2.92010   
  2420. RY*(   6) F 111                  0.00009     2.45151   
  2421. RY*(   7) F 111                  0.00005     3.04706   
  2422. RY*(   8) F 111                  0.00003     2.53784   
  2423. RY*(   9) F 111                  0.00000     3.19826   
  2424. RY*(  10) F 111                  0.00001     3.45296   
  2425. RY*(  11) F 111                  0.00000     8.07495   
  2426. RY*(  12) F 111                  0.00001     2.69152   
  2427. RY*(  13) F 111                  0.00000     8.31725   
  2428. RY*(  14) F 111                  0.00001     3.05150   
  2429. RY*(  15) F 111                  0.00000     7.93528   
  2430. RY*(  16) F 111                  0.00000    55.35159   
  2431. RY*(  17) F 111                  0.00000     8.29124   
  2432. RY*(  18) F 111                  0.00001     2.97891   
  2433. RY*(  19) F 111                  0.00000     8.22568   
  2434. RY*(  20) F 111                  0.00000     6.89071   
  2435. RY*(  21) F 111                  0.00000     6.86307   
  2436. RY*(  22) F 111                  0.00000     6.77062   
  2437. RY*(  23) F 111                  0.00000     6.89382   
  2438. RY*(  24) F 111                  0.00000     6.82682   
  2439. RY*(  25) F 111                  0.00000     6.83496   
  2440. RY*(  26) F 111                  0.00000     6.89249   
  2857. RY*(   1) H 128                  0.00034     1.17307   
  2858. RY*(   2) H 128                  0.00018     1.68034   
  2859. RY*(   3) H 128                  0.00014     2.15347   
  2860. RY*(   4) H 128                  0.00008     2.72992   
  2861. RY*(   5) H 128                  0.00001     3.06634   
  2862. RY*(   1) H 129                  0.00037     1.20362   
  2863. RY*(   2) H 129                  0.00019     1.71019   
  2864. RY*(   3) H 129                  0.00014     2.17410   
  2865. RY*(   4) H 129                  0.00009     2.71094   
  2866. RY*(   5) H 129                  0.00001     3.07780   
  2881. BD*(   1) P   3 - C   9          0.04100     0.19686   
  2882. BD*(   1) P   3 - C  26          0.03854     0.18978   
  2883. BD*(   1) P   3 - C  32          0.04272     0.18974   
  2895. BD*(   1) C   9 - C  10          0.04244     0.42036   
  2896. BD*(   1) C   9 - C  13          0.05167     0.38118   
  2897. BD*(   2) C   9 - C  13          0.51463     0.01605  2899(v),270(v),2896(g)
                                                    263(r),2978(r),266(r),666(g)
                                                    2882(v),2905(g),565(g)
                                                    673(g),2883(v),2881(g)
                                                    563(g),682(g),569(g),403(v)
                                                    2900(v),2938(r),2892(r)
                                                    346(r),2877(r),267(r),356(r)
                                                    2887(r),264(r),359(r),351(r)
                                                    374(r),361(r),373(r)
  2898. BD*(   1) C  10 - C  11          0.04347     0.41868   
  2899. BD*(   2) C  10 - C  11          0.44833     0.02438  2897(v),3008(r),270(v)
                                                    2898(g),263(r),266(r)
                                                    2892(r),2877(r),2967(v)
                                                    2965(v),2900(g),592(g)
                                                    2887(r),621(g),265(r),264(r)
                                                    2986(r),372(r)
  2900. BD*(   1) C  10 - C  55          0.03567     0.35742   
  2901. BD*(   1) C  11 - C  12          0.02798     0.45119   
  2902. BD*(   1) C  11 - H  54          0.01541     0.40243   
  2903. BD*(   1) C  12 - C  13          0.02997     0.43525   
  2904. BD*(   1) C  12 - H  53          0.01754     0.42007   
  2905. BD*(   1) C  13 - H  39          0.01728     0.40430   
  2934. BD*(   1) C  26 - C  27          0.03004     0.49027   
  2935. BD*(   1) C  26 - C  31          0.02304     0.49017   
  2936. BD*(   2) C  26 - C  31          0.34560    -0.01611  2943(v),2938(v),1135(g)
                                                    2883(v),2922(r)
  2937. BD*(   1) C  27 - C  28          0.02471     0.49649   
  2938. BD*(   2) C  27 - C  28          0.33451    -0.01019  2943(v),2936(v),3012(v)
                                                    3014(v),3013(v)
  2939. BD*(   1) C  27 - H  46          0.01674     0.39520   
  2940. BD*(   1) C  28 - C  29          0.01983     0.49165   
  2941. BD*(   1) C  28 - C  96          0.06705     0.29410   
  2942. BD*(   1) C  29 - C  30          0.01944     0.48940   
  2943. BD*(   2) C  29 - C  30          0.33744    -0.01457  2936(v),2938(v),3015(v)
                                                    1083(g),3016(v)
  2944. BD*(   1) C  29 - H  47          0.01207     0.37264   
  2945. BD*(   1) C  30 - C  31          0.02219     0.48800   
  2946. BD*(   1) C  30 - C 100          0.06764     0.29234   
  2947. BD*(   1) C  31 - H  48          0.01546     0.37107   
  2948. BD*(   1) C  32 - C  33          0.03030     0.49199   
  2949. BD*(   2) C  32 - C  33          0.33407    -0.01897  2959(v),2954(v),2881(v)
                                                    1188(g)
  2950. BD*(   1) C  32 - C  37          0.02222     0.48143   
  2951. BD*(   1) C  33 - C  34          0.02366     0.48262   
  2952. BD*(   1) C  33 - H  49          0.01630     0.37846   
  2953. BD*(   1) C  34 - C  35          0.01974     0.48511   
  2954. BD*(   2) C  34 - C  35          0.33662    -0.02211  2959(v),2949(v),3020(v)
                                                    1239(g),3018(v)
  2955. BD*(   1) C  34 - C 104          0.06695     0.28722   
  2956. BD*(   1) C  35 - C  36          0.01992     0.48076   
  2957. BD*(   1) C  35 - H  50          0.01227     0.36815   
  2958. BD*(   1) C  36 - C  37          0.02283     0.48269   
  2959. BD*(   2) C  36 - C  37          0.33822    -0.02146  2954(v),2949(v),3021(v)
                                                    3023(v),1292(g),3022(v)
  2960. BD*(   1) C  36 - C 108          0.06704     0.28415   
  2961. BD*(   1) C  37 - H  51          0.01541     0.36707   
  2965. BD*(   1) C  55 - N  77          0.03824     0.30903   
  2966. BD*(   1) C  55 - H  78          0.04436     0.34122   
  2967. BD*(   1) C  55 - C  90          0.03310     0.36861   
  2990. BD*(   1) N  77 - C  79          0.01305     0.32992   
  2991. BD*(   1) N  77 - C  80          0.01428     0.33204   
  2992. BD*(   1) C  79 - H  81          0.02984     0.34876   
  2993. BD*(   1) C  79 - H  82          0.01026     0.37496   
  2994. BD*(   1) C  79 - H  83          0.00974     0.36223   
  2995. BD*(   1) C  80 - H  84          0.03137     0.34783   
  2996. BD*(   1) C  80 - H  85          0.01043     0.36393   
  2997. BD*(   1) C  80 - H  86          0.01077     0.37872   
  2998. BD*(   1) C  87 - C  88          0.01484     0.52266   
  2999. BD*(   1) C  87 - C  92          0.01446     0.52665   
  3000. BD*(   2) C  87 - C  92          0.32975     0.01617  3003(v),3008(v),1856(g)
                                                    1986(g)
  3001. BD*(   1) C  87 - H  93          0.01323     0.39948   
  3002. BD*(   1) C  88 - C  89          0.01434     0.53540   
  3003. BD*(   2) C  88 - C  89          0.32235     0.01892  3000(v),3008(v),1882(g)
  3004. BD*(   1) C  88 - H 128          0.01369     0.39719   
  3005. BD*(   1) C  89 - C  90          0.02671     0.52346   
  3006. BD*(   1) C  89 - H  94          0.01585     0.40663   
  3007. BD*(   1) C  90 - C  91          0.02363     0.53432   
  3008. BD*(   2) C  90 - C  91          0.34418     0.02546  3003(v),3000(v),2899(r)
                                                    1960(g),2900(v),2965(v)
                                                    2887(r),2892(r)
  3009. BD*(   1) C  91 - C  92          0.01446     0.53070   
  3010. BD*(   1) C  91 - H  95          0.01776     0.40568   
  3011. BD*(   1) C  92 - H 129          0.01343     0.40067   
  3012. BD*(   1) C  96 - F  97          0.09853     0.19488   
  3013. BD*(   1) C  96 - F  98          0.08924     0.19812   
  3014. BD*(   1) C  96 - F  99          0.09259     0.19156   
  3015. BD*(   1) C 100 - F 101          0.09841     0.19820   
  3016. BD*(   1) C 100 - F 102          0.09310     0.19571   
  3017. BD*(   1) C 100 - F 103          0.08825     0.20190   
  3018. BD*(   1) C 104 - F 105          0.09166     0.19230   
  3019. BD*(   1) C 104 - F 106          0.08759     0.19340   
  3020. BD*(   1) C 104 - F 107          0.10109     0.18130  2954(v),2239(g)
  3021. BD*(   1) C 108 - F 109          0.10276     0.17656  2959(v),2343(g)
  3022. BD*(   1) C 108 - F 110          0.08872     0.19155   
  3023. BD*(   1) C 108 - F 111          0.08915     0.19260   
       -------------------------------
              Total Lewis  323.61110  ( 97.8153%)
        Valence non-Lewis    6.57314  (  1.9868%)
        Rydberg non-Lewis    0.65470  (  0.1979%)
       -------------------------------
            Total unit  2  330.83894  (100.0000%)
           Charge unit  2    0.16106
 1\1\GINC-NC264\SP\RPBE1PBE\Gen\C60H42F24Fe1N2P2\MACKK4\02-Dec-2021\0\\
 # PBE1PBE gen pseudo=read int=(grid=ultrafine) empiricaldispersion=GD3
 BJ pop=nbo guess=read geom=check\\M003_1_4 title\\0,1\Fe,0,0.037918270
 4,-1.5933840994,1.7333062322\P,0,1.795071294,-0.1194025772,-0.82086089
 53\P,0,-1.7666372965,0.288730295,-0.4346130448\C,0,1.5332063041,-1.425
 3257818,0.4157358408\C,0,0.6505141592,-2.5288247305,0.0651769103\C,0,0
 .6684244408,-3.4751782141,1.1379753774\C,0,1.5242379186,-2.9656694347,
 2.1600058883\C,0,2.0942928405,-1.7157503073,1.7312059051\C,0,-1.522174
 4164,-0.4267170274,1.2358931502\C,0,-2.0096999209,-1.6305907705,1.9084
 912386\C,0,-1.3975129701,-1.6510913301,3.2124862357\C,0,-0.5838008136,
 -0.4940949842,3.3788871634\C,0,-0.6376213656,0.2583189431,2.1661099725
 \C,0,3.2638775264,-0.7581951451,-1.7284869859\C,0,3.5426496065,-2.1324
 861863,-1.7107990478\C,0,4.6814265992,-2.629706379,-2.3614286657\C,0,5
 .5419712132,-1.7669169804,-3.0473332705\C,0,5.2494332308,-0.3961531161
 ,-3.0841927481\C,0,4.1169365441,0.111898381,-2.4360592846\C,0,2.425314
 7477,1.4095712898,-0.0045183513\C,0,3.7814359602,1.6040350189,0.319083
 9846\C,0,4.1857769993,2.7682817527,0.9857796877\C,0,3.249786454,3.7483
 386332,1.3472229657\C,0,1.9050015349,3.5631835455,1.0078593401\C,0,1.4
 993193823,2.4135192753,0.3133629285\C,0,-2.4036205887,1.953348214,0.05
 4919443\C,0,-3.1202500503,2.082397561,1.2573109739\C,0,-3.5874245624,3
 .3363669673,1.6705241765\C,0,-3.3315592741,4.475547229,0.8988694898\C,
 0,-2.6151712331,4.3452178096,-0.2986565188\C,0,-2.1536800413,3.0940206
 813,-0.7286949668\C,0,-3.2002279702,-0.5931691427,-1.1744778203\C,0,-4
 .5241618901,-0.2701822253,-0.8523419868\C,0,-5.578551333,-0.9942568886
 ,-1.4302967123\C,0,-5.3212223593,-2.0291010547,-2.3364372044\C,0,-3.99
 38548431,-2.3275689677,-2.6786253575\C,0,-2.936685116,-1.6121475568,-2
 .1061051047\H,0,0.0575778297,-2.593158226,-0.8488400515\H,0,-0.1138805
 742,1.1949695534,1.9804075867\H,0,2.8857454762,-2.8262547819,-1.181267
 058\H,0,6.4344302145,-2.1543495255,-3.5440546491\H,0,3.907870722,1.182
 1175966,-2.4765421981\H,0,4.5320201023,0.8570098437,0.0483338817\H,0,3
 .5674387722,4.6456837357,1.8829836384\H,0,0.4548304446,2.3007310067,0.
 0065778198\H,0,-3.308985431,1.2091753433,1.8858013736\H,0,-3.679122332
 4,5.4572063378,1.2308056632\H,0,-1.611386971,3.00059261,-1.6742528687\
 H,0,-4.7479806196,0.5526054261,-0.1680773948\H,0,-6.146530013,-2.57703
 95609,-2.7962901199\H,0,-1.906561793,-1.8085950903,-2.4189429371\C,0,3
 .1948765148,-0.9850743271,2.4854872132\H,0,0.0286073256,-0.2600808034,
 4.2470981203\H,0,-1.5326882275,-2.4498538208,3.9400568575\C,0,-3.10900
 50896,-2.6094323924,1.5175650195\H,0,3.5319592171,-0.1421698864,1.8452
 39699\N,0,4.3252887404,-1.9081434277,2.7387121279\C,0,4.7991539342,-2.
 5415915026,1.506586318\C,0,5.4381273817,-1.1806297284,3.3616910301\H,0
 ,5.6452467029,-3.2056541688,1.7472812635\H,0,4.006771028,-3.156363971,
 1.0553608006\H,0,5.1504800428,-1.8068043297,0.7428856301\H,0,6.2696393
 541,-1.8833710464,3.5345366833\H,0,5.813679697,-0.3423946282,2.7297122
 997\H,0,5.1271359365,-0.7630968426,4.3312088956\C,0,1.6818860737,0.785
 7402238,6.1540017193\C,0,2.011470307,-0.5793798112,6.1179751901\C,0,2.
 5166650271,-1.1541383382,4.9437812545\C,0,2.6949418656,-0.3717120146,3
 .7886770314\C,0,2.3875101675,0.997675768,3.8398891932\C,0,1.8771327956
 ,1.5750623383,5.0110573663\H,0,1.2837858691,1.2320353011,7.0708234353\
 H,0,1.8775021749,-1.1984089842,7.0113147271\H,0,2.8033674356,-2.210231
 8745,4.9174180154\H,0,2.5397562027,1.6161373179,2.9508232762\H,0,1.634
 2088669,2.6427299894,5.0291115891\N,0,-4.1733264585,-2.5713262973,2.55
 48426277\H,0,-3.5129777913,-2.3024682126,0.5319743723\C,0,-5.304248672
 1,-3.4165721844,2.1499687336\C,0,-4.6688687774,-1.2163580159,2.8175244
 541\H,0,-5.8022205593,-3.0535205108,1.222266521\H,0,-4.9663081461,-4.4
 510349174,1.9869680482\H,0,-6.0531184843,-3.4185833794,2.9597206044\H,
 0,-5.155091192,-0.7452951013,1.9330686368\H,0,-5.4245732213,-1.2695056
 917,3.619232913\H,0,-3.8536252399,-0.5664890148,3.1712154943\C,0,-1.53
 23010423,-6.6305949053,1.0184514483\C,0,-1.7641005508,-6.123934952,2.3
 083548295\C,0,-2.291719968,-4.8369275109,2.479089738\C,0,-2.5834546695
 ,-4.0335473585,1.3614976095\C,0,-2.3773677715,-4.5588095861,0.07627955
 75\C,0,-1.8522454643,-5.8467938849,-0.0996394999\H,0,-1.1206808056,-7.
 6365729445,0.8880545326\H,0,-2.5118754294,-4.4543112285,3.4804012936\H
 ,0,-2.6430639897,-3.9602833286,-0.7982541999\C,0,-4.2906908406,3.44550
 79705,3.001465232\F,0,-3.3956632353,3.5717177761,4.0206403244\F,0,-5.1
 177227599,4.5204713135,3.0513124758\F,0,-5.0337302361,2.3319709405,3.2
 608914813\C,0,-2.3728723384,5.5720681325,-1.1495936436\F,0,-3.46477296
 97,5.8619788433,-1.9072348115\F,0,-2.1226610107,6.6626264342,-0.372286
 6366\F,0,-1.3214708734,5.4064942546,-1.98770272\C,0,-6.9931563608,-0.6
 65673445,-1.0188616244\F,0,-7.1902456893,0.6760289796,-0.946788248\F,0
 ,-7.909094908,-1.1824267671,-1.8745689147\F,0,-7.2681331464,-1.1711802
 078,0.2237935708\C,0,-3.6911489628,-3.4451400278,-3.649390713\F,0,-3.4
 779154686,-4.6262641213,-2.9859720978\F,0,-4.717859729,-3.6561612276,-
 4.5100807549\F,0,-2.5735650216,-3.1919916727,-4.3721679753\C,0,5.01485
 64211,-4.0927572498,-2.2133621814\F,0,5.8727506704,-4.522986199,-3.171
 759671\F,0,5.6055453674,-4.3352288691,-1.002642348\F,0,3.8990720907,-4
 .8684320329,-2.2666589438\C,0,6.1333762703,0.5428147437,-3.8720032828\
 F,0,5.6850358084,0.6940927255,-5.1438531197\F,0,6.172192657,1.77827185
 86,-3.303313286\F,0,7.4115037715,0.0788183535,-3.9433064655\C,0,5.6270
 789131,2.9008452276,1.4180023643\F,0,6.4704637815,2.3141256651,0.53068
 6229\F,0,5.9949637479,4.1983906989,1.560546822\F,0,5.8216111745,2.2885
 966381,2.6238164092\C,0,0.8563525121,4.5867057525,1.3732020804\F,0,1.3
 307010381,5.5191451352,2.2357271546\F,0,0.3877278215,5.2322941016,0.27
 48653667\F,0,-0.2144513638,3.9780202632,1.9686819007\H,0,-1.5400011183
 ,-6.7392764543,3.186201245\H,0,-1.707014008,-6.2358427997,-1.112688721
 6\H,0,0.0723889432,-4.3835781313,1.1965925581\H,0,1.7054467336,-3.4245
 94819,3.1314390684\\Version=ES64L-G09RevE.01\State=1-A\HF=-5620.868861
 5\RMSD=6.057e-09\Dipole=-0.4153326,-1.0123344,1.0915563\Quadrupole=-12
 .9931121,3.2688307,9.7242814,5.0810063,8.2231403,-5.0251369\PG=C01 [X(
 C60H42F24Fe1N2P2)]\\@


 ... I FELL INTO A REVERIE ... THE ATOMS WERE GAMBOLING BEFORE MY EYES
 ... I SAW HOW TWO SMALL ONES UNITED TO FORM A PAIR;
 HOW THE LARGER ONES SEIZED TWO OF THE SMALLER ONES;
 HOW STILL LARGER ONES KEPT HOLD OF THREE OR FOUR
 SMALLER ONES ... I SAW HOW THE LARGER ONES FORMED A CHAIN ...
 THIS WAS THE ORIGIN OF THE STRUCTURE THEORY.

                                   -- C.F.KEKULE VON STRADONITZ
 Job cpu time:       1 days  2 hours 51 minutes 48.2 seconds.
 File lengths (MBytes):  RWF=   4716 Int=      0 D2E=      0 Chk=    648 Scr=      1
 Normal termination of Gaussian 09 at Thu Dec  2 11:47:37 2021.
