 Entering Gaussian System, Link 0=g09
 Input=M003_1_3_SPE_NoPd.com
 Output=M003_1_3_SPE_NoPd.log
 Initial command:
 /gstore/apps/gaussian/g09.e01-foss-2017a/g09/l1.exe "/local/22791167/Gau-26423.inp" -scrdir="/local/22791167/"
 Entering Link 1 = /gstore/apps/gaussian/g09.e01-foss-2017a/g09/l1.exe PID=     26425.
  
 Copyright (c) 1988,1990,1992,1993,1995,1998,2003,2009,2015,
            Gaussian, Inc.  All Rights Reserved.
  
 This is part of the Gaussian(R) 09 program.  It is based on
 the Gaussian(R) 03 system (copyright 2003, Gaussian, Inc.),
 the Gaussian(R) 98 system (copyright 1998, Gaussian, Inc.),
 the Gaussian(R) 94 system (copyright 1995, Gaussian, Inc.),
 the Gaussian 92(TM) system (copyright 1992, Gaussian, Inc.),
 the Gaussian 90(TM) system (copyright 1990, Gaussian, Inc.),
 the Gaussian 88(TM) system (copyright 1988, Gaussian, Inc.),
 the Gaussian 86(TM) system (copyright 1986, Carnegie Mellon
 University), and the Gaussian 82(TM) system (copyright 1983,
 Carnegie Mellon University). Gaussian is a federally registered
 trademark of Gaussian, Inc.
  
 This software contains proprietary and confidential information,
 including trade secrets, belonging to Gaussian, Inc.
  
 This software is provided under written license and may be
 used, copied, transmitted, or stored only in accord with that
 written license.
  
 The following legend is applicable only to US Government
 contracts under FAR:
  
                    RESTRICTED RIGHTS LEGEND
  
 Use, reproduction and disclosure by the US Government is
 subject to restrictions as set forth in subparagraphs (a)
 and (c) of the Commercial Computer Software - Restricted
 Rights clause in FAR 52.227-19.
  
 Gaussian, Inc.
 340 Quinnipiac St., Bldg. 40, Wallingford CT 06492
  
  
 ---------------------------------------------------------------
 Warning -- This program may not be used in any manner that
 competes with the business of Gaussian, Inc. or will provide
 assistance to any competitor of Gaussian, Inc.  The licensee
 of this program is prohibited from giving any competitor of
 Gaussian, Inc. access to this program.  By using this program,
 the user acknowledges that Gaussian, Inc. is engaged in the
 business of creating and licensing software in the field of
 computational chemistry and represents and warrants to the
 licensee that it is not a competitor of Gaussian, Inc. and that
 it will not use this program in any manner prohibited above.
 ---------------------------------------------------------------
  

 Cite this work as:
 Gaussian 09, Revision E.01,
 M. J. Frisch, G. W. Trucks, H. B. Schlegel, G. E. Scuseria, 
 M. A. Robb, J. R. Cheeseman, G. Scalmani, V. Barone, B. Mennucci, 
 G. A. Petersson, H. Nakatsuji, M. Caricato, X. Li, H. P. Hratchian, 
 A. F. Izmaylov, J. Bloino, G. Zheng, J. L. Sonnenberg, M. Hada, 
 M. Ehara, K. Toyota, R. Fukuda, J. Hasegawa, M. Ishida, T. Nakajima, 
 Y. Honda, O. Kitao, H. Nakai, T. Vreven, J. A. Montgomery, Jr., 
 J. E. Peralta, F. Ogliaro, M. Bearpark, J. J. Heyd, E. Brothers, 
 K. N. Kudin, V. N. Staroverov, T. Keith, R. Kobayashi, J. Normand, 
 K. Raghavachari, A. Rendell, J. C. Burant, S. S. Iyengar, J. Tomasi, 
 M. Cossi, N. Rega, J. M. Millam, M. Klene, J. E. Knox, J. B. Cross, 
 V. Bakken, C. Adamo, J. Jaramillo, R. Gomperts, R. E. Stratmann, 
 O. Yazyev, A. J. Austin, R. Cammi, C. Pomelli, J. W. Ochterski, 
 R. L. Martin, K. Morokuma, V. G. Zakrzewski, G. A. Voth, 
 P. Salvador, J. J. Dannenberg, S. Dapprich, A. D. Daniels, 
 O. Farkas, J. B. Foresman, J. V. Ortiz, J. Cioslowski, 
 and D. J. Fox, Gaussian, Inc., Wallingford CT, 2013.
 
 ******************************************
 Gaussian 09:  ES64L-G09RevE.01 30-Nov-2015
                 1-Dec-2021 
 ******************************************
 %nprocs=14
 Will use up to   14 processors via shared memory.
 %mem=128GB
 %chk=M003_1_3_SPE_NoPd.chk
 ----------------------------------------------------------------------
 # PBE1PBE gen pseudo=read int=(grid=ultrafine) empiricaldispersion=GD3
 BJ nmr=giao
 ----------------------------------------------------------------------
 1/38=1/1;
 2/12=2,17=6,18=5,40=1/2;
 3/5=7,11=2,16=1,17=8,25=1,30=1,74=-13,75=-5,124=41/1,2,8,3;
 4//1;
 5/5=2,38=5/2;
 8/6=1,10=90,11=11/1;
 10/13=100,45=16/2;
 6/7=2,8=2,9=2,10=2,28=1/1;
 99/9=1/99;
 --------------
 M003_1_3 title
 --------------
 Symbolic Z-matrix:
 Charge =  0 Multiplicity = 1
 Fe                   -0.00785  -1.49744   1.67688 
 P                     1.79845  -0.07352  -0.78942 
 P                    -1.7839    0.29831  -0.54524 
 C                     1.50838  -1.4256    0.38771 
 C                     0.5656   -2.45594  -0.01293 
 C                     0.47144  -3.41778   1.0373 
 C                     1.33041  -2.99751   2.09624 
 C                     2.00076  -1.7756    1.72035 
 C                    -1.5194   -0.27867   1.1753 
 C                    -2.03092  -1.37958   1.99437 
 C                    -1.32261  -1.32486   3.24866 
 C                    -0.41845  -0.22055   3.24049 
 C                    -0.52954   0.42737   1.97198 
 C                     3.35933  -0.58598  -1.61159 
 C                     4.20185   0.3702   -2.20509 
 C                     5.39745  -0.03561  -2.81143 
 C                     5.75869  -1.38851  -2.84147 
 C                     4.90814  -2.33817  -2.26152 
 C                     3.70834  -1.94344  -1.65528 
 C                     2.27807   1.50227   0.03913 
 C                     3.52015   1.67922   0.67826 
 C                     3.83867   2.92816   1.23248 
 C                     2.93801   4.0019    1.15817 
 C                     1.71534   3.82571   0.50465 
 C                     1.393     2.58681  -0.0669 
 C                    -2.46593   1.98255  -0.20157 
 C                    -3.13671   2.20627   1.01194 
 C                    -3.67617   3.46721   1.3016 
 C                    -3.53157   4.52091   0.39452 
 C                    -2.85228   4.2981   -0.81241 
 C                    -2.32488   3.03876  -1.12137 
 C                    -3.21099  -0.65774  -1.20275 
 C                    -4.53365  -0.31802  -0.89272 
 C                    -5.59134  -1.08942  -1.40049 
 C                    -5.33805  -2.1894   -2.22576 
 C                    -4.01133  -2.50897  -2.55535 
 C                    -2.95153  -1.74767  -2.05172 
 H                     0.00394  -2.45175  -0.94846 
 H                     0.04511   1.2933    1.64464 
 H                     3.93557   1.42878  -2.19495 
 H                     6.69655  -1.69793  -3.3097 
 H                     3.05603  -2.69919  -1.21265 
 H                     4.22448   0.8397    0.73428 
 H                     3.19971   4.97266   1.58513 
 H                     0.45789   2.46552  -0.62535 
 H                    -3.24251   1.40023   1.74124 
 H                    -3.93661   5.50928   0.62697 
 H                    -1.8189    2.86974  -2.07661 
 H                    -4.75441   0.55188  -0.26787 
 H                    -6.16518  -2.77752  -2.62975 
 H                    -1.92487  -1.96971  -2.35553 
 C                     3.06817  -1.05195   2.51281 
 H                     0.29082   0.03041   4.02931 
 H                    -1.45287  -2.03637   4.06216 
 C                    -3.2034   -2.32559   1.76448 
 H                     2.86731   0.03203   2.41568 
 N                     4.39803  -1.24288   1.86409 
 C                     5.47535  -0.61784   2.63723 
 C                     4.76712  -2.61848   1.52858 
 H                     6.36909  -0.52642   1.99655 
 H                     5.17685   0.38841   2.96567 
 H                     5.75067  -1.20052   3.54363 
 H                     5.61257  -2.59869   0.82139 
 H                     5.08245  -3.21818   2.41176 
 H                     3.93007  -3.13523   1.03581 
 C                     3.03938  -1.73295   6.81828 
 C                     3.28657  -2.80798   5.95266 
 C                     3.28615  -2.61556   4.56391 
 C                     3.03344  -1.34231   4.01279 
 C                     2.82077  -0.26729   4.89744 
 C                     2.81223  -0.45632   6.2858 
 H                     3.03704  -1.88749   7.90186 
 H                     3.48431  -3.8051    6.35975 
 H                     3.48963  -3.46675   3.90843 
 H                     2.67847   0.73986   4.48525 
 H                     2.63805   0.39562   6.95111 
 N                    -4.18479  -2.14929   2.8667 
 H                    -3.66558  -2.07014   0.78899 
 C                    -5.36855  -2.98711   2.63036 
 C                    -4.61651  -0.75553   3.00845 
 H                    -5.91555  -2.706     1.70193 
 H                    -5.07738  -4.04591   2.56091 
 H                    -6.05933  -2.87125   3.48228 
 H                    -5.12596  -0.35762   2.10008 
 H                    -5.33296  -0.69052   3.84429 
 H                    -3.76015  -0.10853   3.25398 
 C                    -1.87203  -6.45405   1.45312 
 C                    -1.90538  -5.82151   2.70748 
 C                    -2.35306  -4.49881   2.82213 
 C                    -2.76216  -3.78403   1.68112 
 C                    -2.75747  -4.43503   0.43786 
 C                    -2.31192  -5.75911   0.31744 
 H                    -1.5205   -7.48723   1.36695 
 H                    -2.41727  -4.02094   3.80417 
 H                    -3.1108   -3.90323  -0.44807 
 C                    -4.34836   3.67204   2.63711 
 F                    -5.16546   4.75484   2.63621 
 F                    -5.09632   2.58383   2.98311 
 F                    -3.43097   3.85049   3.62787 
 C                    -2.70494   5.45349  -1.77696 
 F                    -1.8646    5.16837  -2.7973 
 F                    -3.91047   5.79598  -2.30948 
 F                    -2.22832   6.55707  -1.13327 
 C                    -7.00022  -0.72362  -1.00195 
 F                    -7.93047  -1.4044   -1.71505 
 F                    -7.21761  -0.9995    0.32188 
 F                    -7.23068   0.6049   -1.16435 
 C                    -3.72521  -3.71477  -3.41867 
 F                    -3.6917   -4.85866  -2.66073 
 F                    -4.68635  -3.89699  -4.35816 
 F                    -2.52851  -3.61865  -4.04506 
 C                     6.27064   0.99298  -3.49065 
 F                     6.19772   2.19795  -2.86197 
 F                     7.57718   0.60887  -3.49894 
 F                     5.89724   1.18568  -4.78137 
 C                     5.34044  -3.78166  -2.21056 
 F                     6.26122  -3.98082  -1.21643 
 F                     4.29933  -4.61915  -1.96099 
 F                     5.92711  -4.17351  -3.37036 
 C                     5.14287   3.11314   1.97089 
 F                     6.13817   2.3616    1.43629 
 F                     5.54726   4.40751   1.97154 
 F                     5.01094   2.73566   3.28242 
 C                     0.70269   4.9428    0.41356 
 F                     1.20597   6.12969   0.83123 
 F                     0.2607    5.09575  -0.86185 
 F                    -0.38662   4.66065   1.18738 
 H                    -1.58857  -6.3661    3.60337 
 H                    -2.31924  -6.24031  -0.66576 
 H                    -0.19285  -4.27949   1.05509 
 H                     1.40905  -3.47666   3.0705 
 
 Stoichiometry    C60H42F24FeN2P2
 Framework group  C1[X(C60H42F24FeN2P2)]
 Deg. of freedom   387
 Full point group                 C1      NOp   1
 Largest Abelian subgroup         C1      NOp   1
 Largest concise Abelian subgroup C1      NOp   1
                         Standard orientation:                         
 ---------------------------------------------------------------------
 Center     Atomic      Atomic             Coordinates (Angstroms)
 Number     Number       Type             X           Y           Z
 ---------------------------------------------------------------------
      1         26           0       -0.041260   -1.388237    1.403381
      2         15           0        1.778947   -0.057401   -1.104326
      3         15           0       -1.804511    0.324056   -0.893545
      4          6           0        1.481945   -1.364718    0.120669
      5          6           0        0.540904   -2.409030   -0.246496
      6          6           0        0.440664   -3.331139    0.838241
      7          6           0        1.294075   -2.871980    1.885468
      8          6           0        1.966970   -1.665039    1.468045
      9          6           0       -1.549559   -0.188626    0.848661
     10          6           0       -2.065963   -1.258210    1.705310
     11          6           0       -1.364422   -1.157051    2.960521
     12          6           0       -0.459763   -0.054013    2.916195
     13          6           0       -0.563717    0.546330    1.623896
     14          6           0        3.344025   -0.600422   -1.898413
     15          6           0        4.190147    0.332843   -2.522478
     16          6           0        5.388841   -0.095489   -3.106820
     17          6           0        5.749663   -1.448652   -3.084590
     18          6           0        4.895586   -2.375911   -2.474349
     19          6           0        3.692688   -1.958645   -1.889714
     20          6           0        2.254747    1.548000   -0.332349
     21          6           0        3.493431    1.748303    0.306486
     22          6           0        3.809481    3.016919    0.815613
     23          6           0        2.909698    4.087357    0.696553
     24          6           0        1.690496    3.887265    0.043428
     25          6           0        1.370724    2.628047   -0.483416
     26          6           0       -2.487673    2.020060   -0.616424
     27          6           0       -3.164908    2.288889    0.584276
     28          6           0       -3.705394    3.559850    0.823939
     29          6           0       -3.555438    4.579057   -0.120896
     30          6           0       -2.869733    4.311385   -1.315013
     31          6           0       -2.341205    3.041307   -1.574081
     32          6           0       -3.228438   -0.655463   -1.522775
     33          6           0       -4.552607   -0.304159   -1.232762
     34          6           0       -5.607864   -1.093662   -1.717227
     35          6           0       -5.350589   -2.223620   -2.499647
     36          6           0       -4.022239   -2.555518   -2.809933
     37          6           0       -2.964852   -1.776259   -2.329223
     38          1           0       -0.015690   -2.439500   -1.184556
     39          1           0        0.013053    1.399360    1.267704
     40          1           0        3.924265    1.391129   -2.553134
     41          1           0        6.689902   -1.775482   -3.535908
     42          1           0        3.037675   -2.697274   -1.422829
     43          1           0        4.197089    0.911289    0.397495
     44          1           0        3.169494    5.073253    1.088540
     45          1           0        0.438595    2.486287   -1.042028
     46          1           0       -3.274993    1.510542    1.342458
     47          1           0       -3.961313    5.575477    0.072455
     48          1           0       -1.830149    2.836775   -2.519619
     49          1           0       -4.776368    0.588422   -0.641884
     50          1           0       -6.175770   -2.826165   -2.885967
     51          1           0       -1.936661   -2.009675   -2.619003
     52          6           0        3.030387   -0.912670    2.238826
     53          1           0        0.245342    0.225948    3.698971
     54          1           0       -1.499378   -1.837798    3.799190
     55          6           0       -3.237589   -2.211844    1.504404
     56          1           0        2.830509    0.166995    2.100380
     57          7           0        4.363651   -1.127880    1.604862
     58          6           0        5.437043   -0.474770    2.360053
     59          6           0        4.733966   -2.515085    1.322725
     60          1           0        6.334267   -0.407435    1.721272
     61          1           0        5.137203    0.543063    2.649237
     62          1           0        5.707215   -1.023408    3.288967
     63          1           0        5.583232   -2.521786    0.619877
     64          1           0        5.044258   -3.081609    2.229286
     65          1           0        3.899371   -3.049610    0.844980
     66          6           0        2.978037   -1.433126    6.566413
     67          6           0        3.229446   -2.539643    5.742713
     68          6           0        3.236614   -2.398992    4.347782
     69          6           0        2.987426   -1.147053    3.748350
     70          6           0        2.770429   -0.039839    4.591260
     71          6           0        2.754313   -0.177118    5.985621
     72          1           0        2.969774   -1.547269    7.654962
     73          1           0        3.424560   -3.520985    6.187652
     74          1           0        3.443268   -3.274009    3.725517
     75          1           0        2.630793    0.951317    4.141155
     76          1           0        2.576897    0.699007    6.617846
     77          7           0       -4.224845   -1.994469    2.593974
     78          1           0       -3.694378   -1.992737    0.517601
     79          6           0       -5.407667   -2.840230    2.382536
     80          6           0       -4.656737   -0.596305    2.681476
     81          1           0       -5.949525   -2.593714    1.441350
     82          1           0       -5.116576   -3.900945    2.354075
     83          1           0       -6.102990   -2.692631    3.225803
     84          1           0       -5.161102   -0.232328    1.756193
     85          1           0       -5.377664   -0.500107    3.510424
     86          1           0       -3.801441    0.059179    2.907418
     87          6           0       -1.906307   -6.349330    1.353950
     88          6           0       -1.946170   -5.670586    2.583736
     89          6           0       -2.393900   -4.344431    2.646701
     90          6           0       -2.796521   -3.672477    1.477706
     91          6           0       -2.785392   -4.369244    0.259553
     92          6           0       -2.339757   -5.696987    0.190855
     93          1           0       -1.554758   -7.385075    1.308158
     94          1           0       -2.463210   -3.830366    3.609940
     95          1           0       -3.133700   -3.870670   -0.647432
     96          6           0       -4.384702    3.814332    2.147253
     97          9           0       -5.201325    4.896539    2.101666
     98          9           0       -5.134980    2.739909    2.529406
     99          9           0       -3.472605    4.029286    3.135645
    100          6           0       -2.716691    5.430085   -2.321031
    101          9           0       -1.870975    5.107041   -3.325500
    102          9           0       -3.919184    5.752807   -2.872442
    103          9           0       -2.243090    6.556721   -1.716244
    104          6           0       -7.018721   -0.712987   -1.340190
    105          9           0       -7.945397   -1.419595   -2.032524
    106          9           0       -7.243377   -0.939412   -0.008217
    107          9           0       -7.247739    0.608628   -1.553117
    108          6           0       -3.731969   -3.792644   -3.626271
    109          9           0       -3.703045   -4.907576   -2.826161
    110          9           0       -4.688100   -4.009452   -4.563531
    111          9           0       -2.531866   -3.720148   -4.249309
    112          6           0        6.266122    0.906937   -3.819068
    113          9           0        6.190316    2.134468   -3.236023
    114          9           0        7.572524    0.522493   -3.805999
    115          9           0        5.899783    1.051599   -5.118063
    116          6           0        5.326992   -3.816602   -2.367425
    117          9           0        6.242297   -3.978874   -1.361606
    118          9           0        4.284190   -4.643998   -2.092535
    119          9           0        5.919752   -4.251428   -3.508664
    120          6           0        5.109756    3.228936    1.553683
    121          9           0        6.107610    2.457810    1.052789
    122          9           0        5.514682    4.522338    1.508405
    123          9           0        4.970575    2.900499    2.877604
    124          6           0        0.678836    5.000419   -0.094619
    125          9           0        1.180348    6.201902    0.281358
    126          9           0        0.243805    5.105944   -1.377208
    127          9           0       -0.414762    4.747473    0.683243
    128          1           0       -1.634440   -6.181560    3.500950
    129          1           0       -2.341971   -6.214410   -0.773800
    130          1           0       -0.224083   -4.191439    0.884460
    131          1           0        1.367243   -3.314596    2.877278
 ---------------------------------------------------------------------
 Rotational constants (GHZ):      0.0227024      0.0165318      0.0140349
 General basis read from cards:  (5D, 7F)
 ======================================================================================================
                                       Pseudopotential Parameters
 ======================================================================================================
  Center     Atomic      Valence      Angular      Power
  Number     Number     Electrons     Momentum     of R      Exponent        Coefficient   SO-Coeffient
 ======================================================================================================
    1         26           16
                                      F and up 
                                                     2        1.0000000        0.00000000    0.00000000
                                      S - F
                                                     2       20.9300000      253.74958800    0.00000000
                                                     2        9.4450000       37.92284500    0.00000000
                                      P - F
                                                     2       21.7600000      161.03681200    0.00000000
                                                     2        9.1780000       27.65129800    0.00000000
                                      D - F
                                                     2       25.9000000      -24.43127600    0.00000000
                                                     2        8.8350000       -1.43425100    0.00000000
    2         15
                                   No pseudopotential on this center.
    3         15
                                   No pseudopotential on this center.
    4          6
                                   No pseudopotential on this center.
    5          6
                                   No pseudopotential on this center.
    6          6
                                   No pseudopotential on this center.
    7          6
                                   No pseudopotential on this center.
    8          6
                                   No pseudopotential on this center.
    9          6
                                   No pseudopotential on this center.
   10          6
                                   No pseudopotential on this center.
   11          6
                                   No pseudopotential on this center.
   12          6
                                   No pseudopotential on this center.
   13          6
                                   No pseudopotential on this center.
   14          6
                                   No pseudopotential on this center.
   15          6
                                   No pseudopotential on this center.
   16          6
                                   No pseudopotential on this center.
   17          6
                                   No pseudopotential on this center.
   18          6
                                   No pseudopotential on this center.
   19          6
                                   No pseudopotential on this center.
   20          6
                                   No pseudopotential on this center.
   21          6
                                   No pseudopotential on this center.
   22          6
                                   No pseudopotential on this center.
   23          6
                                   No pseudopotential on this center.
   24          6
                                   No pseudopotential on this center.
   25          6
                                   No pseudopotential on this center.
   26          6
                                   No pseudopotential on this center.
   27          6
                                   No pseudopotential on this center.
   28          6
                                   No pseudopotential on this center.
   29          6
                                   No pseudopotential on this center.
   30          6
                                   No pseudopotential on this center.
   31          6
                                   No pseudopotential on this center.
   32          6
                                   No pseudopotential on this center.
   33          6
                                   No pseudopotential on this center.
   34          6
                                   No pseudopotential on this center.
   35          6
                                   No pseudopotential on this center.
   36          6
                                   No pseudopotential on this center.
   37          6
                                   No pseudopotential on this center.
   38          1
                                   No pseudopotential on this center.
   39          1
                                   No pseudopotential on this center.
   40          1
                                   No pseudopotential on this center.
   41          1
                                   No pseudopotential on this center.
   42          1
                                   No pseudopotential on this center.
   43          1
                                   No pseudopotential on this center.
   44          1
                                   No pseudopotential on this center.
   45          1
                                   No pseudopotential on this center.
   46          1
                                   No pseudopotential on this center.
   47          1
                                   No pseudopotential on this center.
   48          1
                                   No pseudopotential on this center.
   49          1
                                   No pseudopotential on this center.
   50          1
                                   No pseudopotential on this center.
   51          1
                                   No pseudopotential on this center.
   52          6
                                   No pseudopotential on this center.
   53          1
                                   No pseudopotential on this center.
   54          1
                                   No pseudopotential on this center.
   55          6
                                   No pseudopotential on this center.
   56          1
                                   No pseudopotential on this center.
   57          7
                                   No pseudopotential on this center.
   58          6
                                   No pseudopotential on this center.
   59          6
                                   No pseudopotential on this center.
   60          1
                                   No pseudopotential on this center.
   61          1
                                   No pseudopotential on this center.
   62          1
                                   No pseudopotential on this center.
   63          1
                                   No pseudopotential on this center.
   64          1
                                   No pseudopotential on this center.
   65          1
                                   No pseudopotential on this center.
   66          6
                                   No pseudopotential on this center.
   67          6
                                   No pseudopotential on this center.
   68          6
                                   No pseudopotential on this center.
   69          6
                                   No pseudopotential on this center.
   70          6
                                   No pseudopotential on this center.
   71          6
                                   No pseudopotential on this center.
   72          1
                                   No pseudopotential on this center.
   73          1
                                   No pseudopotential on this center.
   74          1
                                   No pseudopotential on this center.
   75          1
                                   No pseudopotential on this center.
   76          1
                                   No pseudopotential on this center.
   77          7
                                   No pseudopotential on this center.
   78          1
                                   No pseudopotential on this center.
   79          6
                                   No pseudopotential on this center.
   80          6
                                   No pseudopotential on this center.
   81          1
                                   No pseudopotential on this center.
   82          1
                                   No pseudopotential on this center.
   83          1
                                   No pseudopotential on this center.
   84          1
                                   No pseudopotential on this center.
   85          1
                                   No pseudopotential on this center.
   86          1
                                   No pseudopotential on this center.
   87          6
                                   No pseudopotential on this center.
   88          6
                                   No pseudopotential on this center.
   89          6
                                   No pseudopotential on this center.
   90          6
                                   No pseudopotential on this center.
   91          6
                                   No pseudopotential on this center.
   92          6
                                   No pseudopotential on this center.
   93          1
                                   No pseudopotential on this center.
   94          1
                                   No pseudopotential on this center.
   95          1
                                   No pseudopotential on this center.
   96          6
                                   No pseudopotential on this center.
   97          9
                                   No pseudopotential on this center.
   98          9
                                   No pseudopotential on this center.
   99          9
                                   No pseudopotential on this center.
  100          6
                                   No pseudopotential on this center.
  101          9
                                   No pseudopotential on this center.
  102          9
                                   No pseudopotential on this center.
  103          9
                                   No pseudopotential on this center.
  104          6
                                   No pseudopotential on this center.
  105          9
                                   No pseudopotential on this center.
  106          9
                                   No pseudopotential on this center.
  107          9
                                   No pseudopotential on this center.
  108          6
                                   No pseudopotential on this center.
  109          9
                                   No pseudopotential on this center.
  110          9
                                   No pseudopotential on this center.
  111          9
                                   No pseudopotential on this center.
  112          6
                                   No pseudopotential on this center.
  113          9
                                   No pseudopotential on this center.
  114          9
                                   No pseudopotential on this center.
  115          9
                                   No pseudopotential on this center.
  116          6
                                   No pseudopotential on this center.
  117          9
                                   No pseudopotential on this center.
  118          9
                                   No pseudopotential on this center.
  119          9
                                   No pseudopotential on this center.
  120          6
                                   No pseudopotential on this center.
  121          9
                                   No pseudopotential on this center.
  122          9
                                   No pseudopotential on this center.
  123          9
                                   No pseudopotential on this center.
  124          6
                                   No pseudopotential on this center.
  125          9
                                   No pseudopotential on this center.
  126          9
                                   No pseudopotential on this center.
  127          9
                                   No pseudopotential on this center.
  128          1
                                   No pseudopotential on this center.
  129          1
                                   No pseudopotential on this center.
  130          1
                                   No pseudopotential on this center.
  131          1
                                   No pseudopotential on this center.
 ======================================================================================================
 There are  3481 symmetry adapted cartesian basis functions of A   symmetry.
 There are  3035 symmetry adapted basis functions of A   symmetry.
  3035 basis functions,  4935 primitive gaussians,  3481 cartesian basis functions
   339 alpha electrons      339 beta electrons
       nuclear repulsion energy     20109.2921890071 Hartrees.
 NAtoms=  131 NActive=  131 NUniq=  131 SFac= 1.00D+00 NAtFMM=   60 NAOKFM=T Big=T
 Integral buffers will be    131072 words long.
 Raffenetti 2 integral format.
 Two-electron integral symmetry is turned on.
 Nuclear repulsion after empirical dispersion term =    20109.0690146560 Hartrees.
 One-electron integrals computed using PRISM.
   1 Symmetry operations used in ECPInt.
 ECPInt:  NShTT=  667590 NPrTT= 2100277 LenC2=  412394 LenP2D=  799206.
 LDataN:  DoStor=T MaxTD1= 6 Len=  172
 NBasis=  3035 RedAO= T EigKep=  3.53D-06  NBF=  3035
 NBsUse=  3035 1.00D-06 EigRej= -1.00D+00 NBFU=  3035
 ExpMin= 1.00D-02 ExpMax= 5.24D+04 ExpMxC= 1.79D+03 IAcc=3 IRadAn=         5 AccDes= 0.00D+00
 Harris functional with IExCor= 1009 and IRadAn=       5 diagonalized for initial guess.
 HarFok:  IExCor= 1009 AccDes= 0.00D+00 IRadAn=         5 IDoV= 1 UseB2=F ITyADJ=14
 ICtDFT=  3500011 ScaDFX=  1.000000  1.000000  1.000000  1.000000
 FoFCou: FMM=F IPFlag=           0 FMFlag=      100000 FMFlg1=        2001
         NFxFlg=           0 DoJE=T BraDBF=F KetDBF=T FulRan=T
         wScrn=  0.000000 ICntrl=     500 IOpCl=  0 I1Cent=   200000004 NGrid=           0
         NMat0=    1 NMatS0=      1 NMatT0=    0 NMatD0=    1 NMtDS0=    0 NMtDT0=    0
 Petite list used in FoFCou.
 Requested convergence on RMS density matrix=1.00D-08 within 128 cycles.
 Requested convergence on MAX density matrix=1.00D-06.
 Requested convergence on             energy=1.00D-06.
 No special actions if energy rises.
 EnCoef did     6 forward-backward iterations
 Restarting incremental Fock formation.
 SCF Done:  E(RPBE1PBE) =  -5620.86644059     A.U. after   28 cycles
            NFock= 28  Conv=0.28D-08     -V/T= 2.0138
 DoSCS=F DFT=T ScalE2(SS,OS)=  1.000000  1.000000
 Range of M.O.s used for correlation:     1  3035
 NBasis=  3035 NAE=   339 NBE=   339 NFC=     0 NFV=     0
 NROrb=   3035 NOA=   339 NOB=   339 NVA=  2696 NVB=  2696

 **** Warning!!: The largest alpha MO coefficient is  0.44976710D+02

          Differentiating once with respect to magnetic field using GIAOs.
          Electric field/nuclear overlap derivatives assumed to be zero.
 FoFCou: FMM=F IPFlag=           0 FMFlag=      100000 FMFlg1=        2001
         NFxFlg=           0 DoJE=F BraDBF=F KetDBF=T FulRan=T
         wScrn=  0.000000 ICntrl=    6100 IOpCl=  0 I1Cent=           7 NGrid=         131
         NMat0=    1 NMatS0=      1 NMatT0=    0 NMatD0=    1 NMtDS0=    0 NMtDT0=    0
 Symmetry not used in FoFCou.
   1 Symmetry operations used in ECPInt.
 ECPInt:  NShTT=  667590 NPrTT= 2100277 LenC2=  667591 LenP2D= 2100277.
 LDataN:  DoStor=T MaxTD1= 7 Len=  274
 FoFJK:  IHMeth= 1 ICntrl=    6127 DoSepK=F KAlg= 0 I1Cent=   0 FoldK=F
 IRaf=         1 NMat=   1 IRICut=       1 DoRegI=T DoRafI=F ISym2E= 0.
          There are     3 degrees of freedom in the 1st order CPHF.  IDoFFX=0 NUNeed=     3.
      3 vectors produced by pass  0 Test12= 3.05D-11 3.33D-08 XBig12= 5.49D+02 2.80D+00.
 AX will form     3 AO Fock derivatives at one time.
      3 vectors produced by pass  1 Test12= 3.05D-11 3.33D-08 XBig12= 2.79D+00 3.46D-01.
      3 vectors produced by pass  2 Test12= 3.05D-11 3.33D-08 XBig12= 6.34D-02 6.98D-02.
      3 vectors produced by pass  3 Test12= 3.05D-11 3.33D-08 XBig12= 1.36D-03 1.02D-02.
      3 vectors produced by pass  4 Test12= 3.05D-11 3.33D-08 XBig12= 1.82D-05 1.56D-03.
      3 vectors produced by pass  5 Test12= 3.05D-11 3.33D-08 XBig12= 7.69D-07 2.15D-04.
      3 vectors produced by pass  6 Test12= 3.05D-11 3.33D-08 XBig12= 5.53D-09 1.45D-05.
      3 vectors produced by pass  7 Test12= 3.05D-11 3.33D-08 XBig12= 4.64D-11 1.69D-06.
      3 vectors produced by pass  8 Test12= 3.05D-11 3.33D-08 XBig12= 1.06D-12 3.33D-07.
 InvSVY:  IOpt=1 It=  1 EMax= 3.55D-15
 Solved reduced A of dimension    27 with     3 vectors.
 Calculating GIAO nuclear magnetic shielding tensors.
 SCF GIAO Magnetic shielding tensor (ppm):
      1  Fe   Isotropic = -6109.5035   Anisotropy =  7772.6857
   XX= -4348.6028   YX= -3342.7742   ZX= -2002.7459
   XY= -3258.4289   YY= -6286.0267   ZY=  1586.9531
   XZ= -1964.3751   YZ=  1573.3967   ZZ= -7693.8809
   Eigenvalues: -8791.5747 -8609.2227  -927.7130
      2  P    Isotropic =   296.8386   Anisotropy =    50.3794
   XX=   301.3604   YX=   -27.6409   ZX=   -21.7801
   XY=   -25.7746   YY=   290.2886   ZY=    33.3943
   XZ=     2.7481   YZ=    -8.7628   ZZ=   298.8666
   Eigenvalues:   268.0771   292.0138   330.4248
      3  P    Isotropic =   309.8146   Anisotropy =    38.5446
   XX=   301.6315   YX=   -10.8710   ZX=   -45.4403
   XY=   -28.4595   YY=   315.2993   ZY=    -5.2976
   XZ=    -6.6066   YZ=   -14.6230   ZZ=   312.5129
   Eigenvalues:   270.1320   323.8007   335.5110
      4  C    Isotropic =   112.1802   Anisotropy =    78.2623
   XX=   126.5179   YX=   -39.8245   ZX=    17.9129
   XY=   -36.1525   YY=   124.3096   ZY=    20.5166
   XZ=     5.2158   YZ=    26.6283   ZZ=    85.7132
   Eigenvalues:    61.2442   110.9415   164.3551
      5  C    Isotropic =    97.5236   Anisotropy =    78.2935
   XX=   124.9910   YX=   -23.8724   ZX=   -30.1803
   XY=   -25.0474   YY=   118.5346   ZY=   -18.2660
   XZ=   -33.9165   YZ=    -4.4706   ZZ=    49.0454
   Eigenvalues:    32.8983   109.9533   149.7193
      6  C    Isotropic =   102.2222   Anisotropy =   105.5096
   XX=   137.6465   YX=   -40.4453   ZX=   -29.6577
   XY=   -48.7107   YY=    69.0252   ZY=    12.2885
   XZ=   -30.5824   YZ=     4.0056   ZZ=    99.9948
   Eigenvalues:    46.2922    87.8124   172.5619
      7  C    Isotropic =   105.0388   Anisotropy =    87.1389
   XX=   131.1218   YX=    -9.5711   ZX=   -40.5970
   XY=   -10.7367   YY=    96.5088   ZY=    51.0756
   XZ=   -24.6812   YZ=    31.8702   ZZ=    87.4858
   Eigenvalues:    46.1941   105.7910   163.1314
      8  C    Isotropic =    92.2838   Anisotropy =    81.7373
   XX=    77.2862   YX=   -32.4507   ZX=   -34.9185
   XY=   -22.1635   YY=   108.7797   ZY=    26.7796
   XZ=   -25.5883   YZ=    17.7786   ZZ=    90.7854
   Eigenvalues:    51.6234    78.4526   146.7753
      9  C    Isotropic =   106.0091   Anisotropy =    83.3039
   XX=   108.3783   YX=   -11.5897   ZX=   -40.3374
   XY=   -16.7335   YY=   109.8438   ZY=    41.8963
   XZ=   -18.4699   YZ=    35.8149   ZZ=    99.8052
   Eigenvalues:    61.1793    95.3029   161.5451
     10  C    Isotropic =    81.0415   Anisotropy =    94.3899
   XX=    66.0593   YX=   -45.3371   ZX=   -13.0592
   XY=   -32.2991   YY=   106.2656   ZY=    28.3927
   XZ=    -6.3842   YZ=    34.6161   ZZ=    70.7996
   Eigenvalues:    39.2400    59.9164   143.9681
     11  C    Isotropic =   107.9656   Anisotropy =    93.6388
   XX=   128.8456   YX=   -43.2726   ZX=     8.2145
   XY=   -31.9014   YY=   131.9704   ZY=    14.4936
   XZ=     0.9959   YZ=    37.2723   ZZ=    63.0809
   Eigenvalues:    50.3976   103.1078   170.3915
     12  C    Isotropic =   106.0586   Anisotropy =    99.2692
   XX=   135.6592   YX=   -41.5175   ZX=   -22.9274
   XY=   -44.9324   YY=   113.5613   ZY=   -14.0499
   XZ=   -37.4767   YZ=    -8.5328   ZZ=    68.9552
   Eigenvalues:    45.0790   100.8586   172.2380
     13  C    Isotropic =   108.0364   Anisotropy =    81.5738
   XX=   137.7755   YX=   -36.8922   ZX=    -8.5993
   XY=   -42.3015   YY=    62.7633   ZY=    24.4337
   XZ=   -17.3439   YZ=     1.8151   ZZ=   123.5703
   Eigenvalues:    45.0958   116.5944   162.4189
     14  C    Isotropic =    30.0658   Anisotropy =   203.8683
   XX=    13.5700   YX=    21.8321   ZX=    92.6216
   XY=    16.1826   YY=   -30.3432   ZY=    17.5186
   XZ=    89.2867   YZ=    20.3572   ZZ=   106.9705
   Eigenvalues:   -45.3962   -30.3844   165.9780
     15  C    Isotropic =    50.3196   Anisotropy =   189.2132
   XX=    57.8549   YX=    18.3888   ZX=    60.5906
   XY=    36.6285   YY=   -46.7886   ZY=    16.0091
   XZ=    62.1576   YZ=    20.1223   ZZ=   139.8923
   Eigenvalues:   -53.6297    28.1267   176.4617
     16  C    Isotropic =    46.8165   Anisotropy =   161.3699
   XX=    28.8533   YX=   -24.0387   ZX=    71.0676
   XY=   -20.6106   YY=    -0.5399   ZY=    37.6668
   XZ=    66.8016   YZ=    38.4486   ZZ=   112.1361
   Eigenvalues:   -44.8502    30.9033   154.3964
     17  C    Isotropic =    58.1720   Anisotropy =   183.1837
   XX=    16.0430   YX=    31.5536   ZX=    82.6226
   XY=    28.3310   YY=    27.2699   ZY=    13.0582
   XZ=    85.3125   YZ=    16.6576   ZZ=   131.2029
   Eigenvalues:   -34.7338    28.9553   180.2944
     18  C    Isotropic =    47.8280   Anisotropy =   160.8413
   XX=    54.2801   YX=    27.1233   ZX=    45.5864
   XY=    29.4042   YY=   -37.3217   ZY=    22.3876
   XZ=    50.6903   YZ=    14.5159   ZZ=   126.5256
   Eigenvalues:   -45.4847    33.9131   155.0555
     19  C    Isotropic =    49.1107   Anisotropy =   194.6398
   XX=    32.9784   YX=    -7.6157   ZX=    76.7601
   XY=   -28.2425   YY=   -10.8561   ZY=    43.5363
   XZ=    87.0161   YZ=    52.5774   ZZ=   125.2097
   Eigenvalues:   -54.9103    23.3717   178.8706
     20  C    Isotropic =    37.4107   Anisotropy =   203.0201
   XX=    29.9467   YX=    10.9822   ZX=   -72.0439
   XY=    13.7753   YY=   -33.5738   ZY=   -51.3028
   XZ=   -81.4734   YZ=   -48.7144   ZZ=   115.8592
   Eigenvalues:   -51.0295    -9.4959   172.7575
     21  C    Isotropic =    37.5719   Anisotropy =   209.9524
   XX=     3.0059   YX=    48.9516   ZX=   -63.0231
   XY=    48.6411   YY=   -27.2868   ZY=   -40.1062
   XZ=   -73.1190   YZ=   -25.2834   ZZ=   136.9965
   Eigenvalues:   -64.5639    -0.2606   177.5401
     22  C    Isotropic =    45.4479   Anisotropy =   162.9185
   XX=    -7.2286   YX=     7.8036   ZX=   -76.2216
   XY=     4.1864   YY=    36.9803   ZY=   -33.4681
   XZ=   -80.1928   YZ=   -27.5184   ZZ=   106.5920
   Eigenvalues:   -47.9379    30.2214   154.0602
     23  C    Isotropic =    54.5021   Anisotropy =   191.4337
   XX=    50.4173   YX=     7.6731   ZX=   -62.1346
   XY=     4.1824   YY=   -19.4064   ZY=   -54.4844
   XZ=   -67.2708   YZ=   -59.5447   ZZ=   132.4954
   Eigenvalues:   -41.5220    22.9038   182.1246
     24  C    Isotropic =    46.8928   Anisotropy =   160.5439
   XX=    25.7777   YX=    46.8796   ZX=   -50.7169
   XY=    54.1677   YY=    -5.2093   ZY=   -21.7889
   XZ=   -52.7266   YZ=   -22.2993   ZZ=   120.1099
   Eigenvalues:   -43.8090    30.5653   153.9220
     25  C    Isotropic =    37.9964   Anisotropy =   190.6982
   XX=   -11.5949   YX=     1.9650   ZX=   -95.9147
   XY=     9.3798   YY=    22.3979   ZY=   -39.7328
   XZ=   -92.1687   YZ=   -36.5997   ZZ=   103.1862
   Eigenvalues:   -66.6416    15.5022   165.1285
     26  C    Isotropic =    36.1320   Anisotropy =   206.4197
   XX=   118.2049   YX=    52.4628   ZX=    81.7218
   XY=    48.9904   YY=   -29.8046   ZY=    20.2300
   XZ=    70.5453   YZ=    16.9337   ZZ=    19.9958
   Eigenvalues:   -46.2299   -19.1192   173.7452
     27  C    Isotropic =    37.4664   Anisotropy =   203.3931
   XX=   141.6689   YX=    12.1759   ZX=    60.1402
   XY=    38.5715   YY=   -21.0007   ZY=    49.2290
   XZ=    63.8965   YZ=    52.5732   ZZ=    -8.2692
   Eigenvalues:   -68.7448     8.0821   173.0618
     28  C    Isotropic =    45.0097   Anisotropy =   165.2155
   XX=   102.2046   YX=    33.7108   ZX=    86.9861
   XY=    37.4524   YY=    37.3086   ZY=     2.1122
   XZ=    74.7934   YZ=     5.5759   ZZ=    -4.4842
   Eigenvalues:   -50.2537    30.1294   155.1533
     29  C    Isotropic =    52.7412   Anisotropy =   194.5543
   XX=   133.8251   YX=    64.8426   ZX=    59.0292
   XY=    58.9042   YY=   -19.5092   ZY=     9.2253
   XZ=    63.6071   YZ=     8.3814   ZZ=    43.9076
   Eigenvalues:   -43.4946    19.2741   182.4441
     30  C    Isotropic =    43.9265   Anisotropy =   167.8929
   XX=   123.7502   YX=    21.9202   ZX=    51.3190
   XY=    23.8040   YY=    -5.3484   ZY=    49.6071
   XZ=    55.8831   YZ=    49.3148   ZZ=    13.3779
   Eigenvalues:   -48.2683    24.1928   155.8551
     31  C    Isotropic =    46.0641   Anisotropy =   189.6910
   XX=   118.7759   YX=    30.8071   ZX=    91.4345
   XY=    42.4488   YY=    28.3755   ZY=     6.9745
   XZ=    87.5782   YZ=    -4.6191   ZZ=    -8.9591
   Eigenvalues:   -58.0793    23.7468   172.5247
     32  C    Isotropic =    41.1552   Anisotropy =   204.2744
   XX=   -26.5852   YX=   -19.6209   ZX=    -6.1368
   XY=   -22.6460   YY=    37.7790   ZY=  -101.7810
   XZ=    -8.0042   YZ=   -88.4110   ZZ=   112.2719
   Eigenvalues:   -48.3694    -5.5030   177.3382
     33  C    Isotropic =    38.5485   Anisotropy =   207.8654
   XX=     1.5036   YX=    12.4760   ZX=    18.1757
   XY=     7.7303   YY=    17.9374   ZY=  -103.3949
   XZ=     5.6508   YZ=  -123.4216   ZZ=    96.2044
   Eigenvalues:   -66.2846     4.8046   177.1255
     34  C    Isotropic =    45.2278   Anisotropy =   164.4901
   XX=   -38.3588   YX=    16.0586   ZX=    25.0045
   XY=     9.9101   YY=    64.3410   ZY=   -61.5991
   XZ=    22.2071   YZ=   -64.7560   ZZ=   109.7012
   Eigenvalues:   -47.7160    28.5115   154.8879
     35  C    Isotropic =    54.6360   Anisotropy =   191.2003
   XX=   -12.2399   YX=   -30.1726   ZX=   -10.5629
   XY=   -31.8997   YY=    50.0561   ZY=   -89.0617
   XZ=    -5.2093   YZ=   -81.7163   ZZ=   126.0918
   Eigenvalues:   -39.6018    21.4070   182.1029
     36  C    Isotropic =    46.3204   Anisotropy =   163.0697
   XX=    26.5592   YX=     7.4975   ZX=    14.1345
   XY=     7.4063   YY=    23.4296   ZY=   -89.8603
   XZ=    18.1420   YZ=   -95.3087   ZZ=    88.9723
   Eigenvalues:   -45.3297    29.2573   155.0335
     37  C    Isotropic =    42.4171   Anisotropy =   189.6046
   XX=   -52.7200   YX=     9.2351   ZX=    27.2003
   XY=    18.3336   YY=    69.4477   ZY=   -70.4534
   XZ=    24.3565   YZ=   -80.3697   ZZ=   110.5237
   Eigenvalues:   -62.8350    21.2662   168.8202
     38  H    Isotropic =    27.0201   Anisotropy =     6.5418
   XX=    29.4838   YX=     3.6990   ZX=     0.4185
   XY=     0.9595   YY=    26.3031   ZY=    -0.3608
   XZ=     4.1655   YZ=     0.1776   ZZ=    25.2732
   Eigenvalues:    23.7260    25.9529    31.3813
     39  H    Isotropic =    28.0311   Anisotropy =     9.5769
   XX=    30.7132   YX=     1.4045   ZX=     0.3623
   XY=     4.4562   YY=    27.1776   ZY=    -2.4303
   XZ=    -4.4838   YZ=    -6.0988   ZZ=    26.2024
   Eigenvalues:    22.3728    27.3048    34.4157
     40  H    Isotropic =    23.9899   Anisotropy =    15.5120
   XX=    27.8164   YX=     0.5737   ZX=    -7.7864
   XY=     1.6700   YY=    18.3653   ZY=    -1.2496
   XZ=    -7.0655   YZ=     1.5791   ZZ=    25.7882
   Eigenvalues:    17.8297    19.8088    34.3313
     41  H    Isotropic =    23.5509   Anisotropy =     9.6062
   XX=    21.5709   YX=     1.6602   ZX=    -3.0339
   XY=     1.7878   YY=    28.8119   ZY=    -2.1415
   XZ=    -2.4364   YZ=    -2.0001   ZZ=    20.2699
   Eigenvalues:    18.0764    22.6213    29.9550
     42  H    Isotropic =    23.6034   Anisotropy =    17.7171
   XX=    27.2179   YX=    -5.1904   ZX=    -7.3298
   XY=    -6.7704   YY=    21.8216   ZY=     5.7313
   XZ=    -4.6282   YZ=     4.0569   ZZ=    21.7708
   Eigenvalues:    16.9019    18.4936    35.4148
     43  H    Isotropic =    22.1924   Anisotropy =    10.0240
   XX=    20.6191   YX=     5.9252   ZX=     3.9990
   XY=     4.3498   YY=    23.7687   ZY=     0.8417
   XZ=     1.9716   YZ=     1.9865   ZZ=    22.1893
   Eigenvalues:    16.3426    21.3594    28.8750
     44  H    Isotropic =    23.1041   Anisotropy =    11.0473
   XX=    28.2778   YX=    -2.1973   ZX=     3.9439
   XY=    -2.6553   YY=    22.6041   ZY=    -0.7152
   XZ=     3.8775   YZ=    -0.8609   ZZ=    18.4304
   Eigenvalues:    17.0657    21.7776    30.4690
     45  H    Isotropic =    22.2551   Anisotropy =     9.6949
   XX=    22.6621   YX=    -2.6153   ZX=    -1.7375
   XY=    -0.6122   YY=    28.1895   ZY=    -0.8317
   XZ=     1.6852   YZ=    -1.4327   ZZ=    15.9138
   Eigenvalues:    15.8057    22.2413    28.7184
     46  H    Isotropic =    22.8778   Anisotropy =    15.4777
   XX=    24.0679   YX=    -6.5554   ZX=    -0.2029
   XY=    -6.5569   YY=    26.6888   ZY=     1.9686
   XZ=    -4.9799   YZ=     4.5527   ZZ=    17.8767
   Eigenvalues:    16.7427    18.6944    33.1963
     47  H    Isotropic =    23.0384   Anisotropy =     9.1034
   XX=    21.3667   YX=    -0.2120   ZX=    -3.6096
   XY=     0.0508   YY=    21.8020   ZY=    -3.0343
   XZ=    -4.2880   YZ=    -2.8354   ZZ=    25.9466
   Eigenvalues:    18.2779    21.7300    29.1074
     48  H    Isotropic =    22.7193   Anisotropy =    12.2460
   XX=    19.5859   YX=    -0.6552   ZX=     1.1222
   XY=    -0.4054   YY=    29.6487   ZY=    -3.5898
   XZ=     0.6341   YZ=    -3.9135   ZZ=    18.9234
   Eigenvalues:    17.5144    19.7602    30.8833
     49  H    Isotropic =    23.2527   Anisotropy =    15.3629
   XX=    30.5747   YX=     6.7219   ZX=     2.9166
   XY=     3.1586   YY=    21.5014   ZY=    -0.2748
   XZ=     3.9558   YZ=     1.7290   ZZ=    17.6822
   Eigenvalues:    16.7448    19.5188    33.4946
     50  H    Isotropic =    23.0195   Anisotropy =     9.7366
   XX=    25.4093   YX=    -3.3889   ZX=    -1.1941
   XY=    -3.9754   YY=    22.1821   ZY=     4.0197
   XZ=    -1.4479   YZ=     4.6796   ZZ=    21.4670
   Eigenvalues:    17.1218    22.4261    29.5105
     51  H    Isotropic =    22.2305   Anisotropy =    11.9549
   XX=    19.9233   YX=     4.2074   ZX=     2.7214
   XY=     3.5047   YY=    23.2921   ZY=     3.9352
   XZ=     2.4441   YZ=     5.6471   ZZ=    23.4761
   Eigenvalues:    17.3204    19.1706    30.2004
     52  C    Isotropic =   116.0051   Anisotropy =    29.9598
   XX=   127.3974   YX=    -4.9482   ZX=    -8.5307
   XY=    -9.1097   YY=   103.9486   ZY=     5.3774
   XZ=   -12.5619   YZ=     3.1715   ZZ=   116.6693
   Eigenvalues:   101.8356   110.2014   135.9783
     53  H    Isotropic =    27.7705   Anisotropy =    10.4185
   XX=    31.1738   YX=    -1.4591   ZX=     5.8302
   XY=     1.3384   YY=    22.9354   ZY=     0.5987
   XZ=     3.0081   YZ=    -0.6680   ZZ=    29.2024
   Eigenvalues:    22.9350    25.6604    34.7162
     54  H    Isotropic =    27.4789   Anisotropy =     3.9680
   XX=    27.4945   YX=     3.1818   ZX=     3.2132
   XY=     2.0594   YY=    26.9845   ZY=    -2.0850
   XZ=     1.1291   YZ=    -3.1313   ZZ=    27.9576
   Eigenvalues:    22.4994    29.8130    30.1242
     55  C    Isotropic =   116.7809   Anisotropy =    41.2213
   XX=   122.4680   YX=    -9.2012   ZX=   -16.6373
   XY=   -16.9505   YY=   106.0589   ZY=     8.0911
   XZ=   -16.3907   YZ=     6.8220   ZZ=   121.8157
   Eigenvalues:    98.6564   107.4244   144.2617
     56  H    Isotropic =    27.0981   Anisotropy =     5.6409
   XX=    25.2331   YX=     1.1890   ZX=     1.0520
   XY=    -1.1612   YY=    29.2343   ZY=    -0.6128
   XZ=     1.2830   YZ=    -4.3550   ZZ=    26.8269
   Eigenvalues:    24.2258    26.2098    30.8587
     57  N    Isotropic =   202.8793   Anisotropy =    57.8598
   XX=   238.2223   YX=    18.1799   ZX=   -12.7845
   XY=    -0.9132   YY=   187.9541   ZY=    11.4661
   XZ=    -9.5282   YZ=    -1.7284   ZZ=   182.4615
   Eigenvalues:   176.4390   190.7464   241.4525
     58  C    Isotropic =   140.7081   Anisotropy =    54.5803
   XX=   146.9748   YX=    26.0398   ZX=    21.1377
   XY=    19.8969   YY=   143.0385   ZY=     9.3343
   XZ=    16.6385   YZ=     8.6859   ZZ=   132.1110
   Eigenvalues:   116.8764   128.1530   177.0950
     59  C    Isotropic =   145.1927   Anisotropy =    48.1126
   XX=   125.5711   YX=   -15.0312   ZX=    -0.2195
   XY=    -9.5997   YY=   171.0144   ZY=    12.9748
   XZ=     0.6990   YZ=     9.6827   ZZ=   138.9927
   Eigenvalues:   121.8362   136.4742   177.2678
     60  H    Isotropic =    29.5933   Anisotropy =     9.2498
   XX=    34.7408   YX=     2.8811   ZX=    -1.1558
   XY=     3.0480   YY=    26.9113   ZY=    -0.5427
   XZ=     0.5129   YZ=    -0.3491   ZZ=    27.1277
   Eigenvalues:    25.8348    27.1852    35.7598
     61  H    Isotropic =    29.2207   Anisotropy =    11.3843
   XX=    26.1315   YX=     6.0703   ZX=     0.1942
   XY=     1.4414   YY=    35.2280   ZY=     0.9156
   XZ=     2.7983   YZ=     1.3123   ZZ=    26.3025
   Eigenvalues:    24.2182    26.6336    36.8102
     62  H    Isotropic =    30.4316   Anisotropy =     7.5403
   XX=    33.5452   YX=     0.3986   ZX=     1.4217
   XY=     1.0279   YY=    25.7600   ZY=    -1.3257
   XZ=     3.6594   YZ=    -2.4651   ZZ=    31.9897
   Eigenvalues:    24.9896    30.8468    35.4585
     63  H    Isotropic =    29.9605   Anisotropy =    11.2194
   XX=    30.3731   YX=    -4.2851   ZX=    -3.1492
   XY=    -4.8812   YY=    26.9009   ZY=     3.8039
   XZ=    -4.0608   YZ=     1.0393   ZZ=    32.6074
   Eigenvalues:    23.7356    28.7057    37.4401
     64  H    Isotropic =    29.7570   Anisotropy =     9.5782
   XX=    28.7497   YX=    -4.7348   ZX=     0.0556
   XY=    -4.7043   YY=    31.0234   ZY=    -4.3351
   XZ=    -0.1247   YZ=    -3.1905   ZZ=    29.4979
   Eigenvalues:    23.8816    29.2470    36.1424
     65  H    Isotropic =    29.5015   Anisotropy =     7.1432
   XX=    32.3758   YX=    -3.0973   ZX=     0.9728
   XY=    -2.4878   YY=    28.9021   ZY=     3.2064
   XZ=    -1.9054   YZ=     1.2512   ZZ=    27.2266
   Eigenvalues:    25.4254    28.8155    34.2636
     66  C    Isotropic =    51.8097   Anisotropy =   188.1540
   XX=   171.3483   YX=    28.8719   ZX=     2.9060
   XY=    26.8476   YY=    41.8313   ZY=     7.8298
   XZ=     5.9346   YZ=     9.7782   ZZ=   -57.7505
   Eigenvalues:   -58.5403    36.7237   177.2457
     67  C    Isotropic =    52.1412   Anisotropy =   186.2059
   XX=   166.9885   YX=    45.0837   ZX=    -3.5686
   XY=    42.5206   YY=   -33.5035   ZY=    36.0592
   XZ=    -2.5676   YZ=    37.4133   ZZ=    22.9386
   Eigenvalues:   -59.0079    39.1531   176.2785
     68  C    Isotropic =    50.7669   Anisotropy =   183.2494
   XX=   164.2427   YX=    37.2006   ZX=    25.2231
   XY=    41.5275   YY=   -24.2108   ZY=   -35.2855
   XZ=    13.5855   YZ=   -46.4661   ZZ=    12.2686
   Eigenvalues:   -59.2418    38.6093   172.9331
     69  C    Isotropic =    39.4494   Anisotropy =   193.4732
   XX=   160.9716   YX=    37.7834   ZX=    10.9609
   XY=    28.4908   YY=    15.2049   ZY=     7.9113
   XZ=     0.8644   YZ=    12.6823   ZZ=   -57.8282
   Eigenvalues:   -59.2606     9.1773   168.4316
     70  C    Isotropic =    47.7412   Anisotropy =   166.4932
   XX=   154.0339   YX=    28.8876   ZX=    -4.6143
   XY=    31.8116   YY=   -41.2171   ZY=    40.1741
   XZ=    -0.0130   YZ=    35.3010   ZZ=    30.4068
   Eigenvalues:   -61.2979    45.7849   158.7366
     71  C    Isotropic =    50.6905   Anisotropy =   186.4148
   XX=   167.9617   YX=    35.5490   ZX=    11.5679
   XY=    38.0079   YY=   -21.5838   ZY=   -46.0227
   XZ=    14.8182   YZ=   -47.7691   ZZ=     5.6937
   Eigenvalues:   -62.8564    39.9609   174.9671
     72  H    Isotropic =    23.8238   Anisotropy =     3.6118
   XX=    20.5517   YX=    -0.9639   ZX=     0.5826
   XY=    -1.1346   YY=    25.9802   ZY=    -0.1048
   XZ=     0.5380   YZ=    -0.2224   ZZ=    24.9395
   Eigenvalues:    20.2974    24.9423    26.2317
     73  H    Isotropic =    23.7769   Anisotropy =     6.3353
   XX=    20.5161   YX=    -0.8647   ZX=     1.0944
   XY=    -0.7846   YY=    22.8823   ZY=     0.2405
   XZ=     0.3325   YZ=    -0.0340   ZZ=    27.9323
   Eigenvalues:    20.1916    23.1387    28.0004
     74  H    Isotropic =    23.8455   Anisotropy =    10.8840
   XX=    21.7963   YX=     0.1090   ZX=     2.1032
   XY=    -0.5363   YY=    22.7912   ZY=    -5.6915
   XZ=     1.0269   YZ=    -5.6037   ZZ=    26.9489
   Eigenvalues:    18.6766    21.7582    31.1015
     75  H    Isotropic =    24.3986   Anisotropy =     9.0237
   XX=    21.4237   YX=     1.5436   ZX=    -0.1610
   XY=     0.4828   YY=    21.8488   ZY=     2.0907
   XZ=     0.1962   YZ=     1.9800   ZZ=    29.9232
   Eigenvalues:    20.4091    22.3723    30.4144
     76  H    Isotropic =    23.8575   Anisotropy =     7.5550
   XX=    20.1497   YX=    -0.2384   ZX=     0.8850
   XY=    -0.2824   YY=    23.1436   ZY=    -1.5149
   XZ=     0.9737   YZ=    -1.8734   ZZ=    28.2792
   Eigenvalues:    20.0431    22.6353    28.8942
     77  N    Isotropic =   190.4670   Anisotropy =    57.6515
   XX=   211.5669   YX=    -1.0220   ZX=   -24.6617
   XY=    -5.5462   YY=   169.5946   ZY=     0.7294
   XZ=   -27.0342   YZ=    -5.2355   ZZ=   190.2396
   Eigenvalues:   167.1833   175.3164   228.9014
     78  H    Isotropic =    29.0424   Anisotropy =    14.1070
   XX=    24.8755   YX=     1.4976   ZX=     1.6412
   XY=    -1.0274   YY=    25.3000   ZY=    -6.3584
   XZ=     2.7624   YZ=    -1.4534   ZZ=    36.9516
   Eigenvalues:    23.4537    25.2263    38.4471
     79  C    Isotropic =   139.2248   Anisotropy =    61.8917
   XX=   158.0386   YX=    32.2978   ZX=     6.2350
   XY=    29.7710   YY=   136.7624   ZY=    -1.3773
   XZ=     4.2310   YZ=     0.4826   ZZ=   122.8732
   Eigenvalues:   113.3448   123.8436   180.4859
     80  C    Isotropic =   139.2783   Anisotropy =    54.9730
   XX=   122.2254   YX=   -18.3316   ZX=     0.4240
   XY=   -13.0907   YY=   171.0473   ZY=     3.1527
   XZ=    -0.2836   YZ=     4.5155   ZZ=   124.5621
   Eigenvalues:   117.4156   124.4922   175.9269
     81  H    Isotropic =    30.0913   Anisotropy =     8.2339
   XX=    33.3809   YX=    -0.5024   ZX=     4.8181
   XY=     2.6521   YY=    25.9129   ZY=    -1.5134
   XZ=     1.5441   YZ=    -1.5417   ZZ=    30.9801
   Eigenvalues:    24.9921    29.7013    35.5806
     82  H    Isotropic =    29.5656   Anisotropy =     6.8160
   XX=    32.5979   YX=     0.1807   ZX=    -2.3898
   XY=     2.1555   YY=    31.1138   ZY=    -2.4730
   XZ=    -2.0450   YZ=    -1.1117   ZZ=    24.9851
   Eigenvalues:    24.0851    30.5021    34.1096
     83  H    Isotropic =    29.5168   Anisotropy =    12.2275
   XX=    33.3808   YX=     1.5496   ZX=    -5.3599
   XY=     3.8010   YY=    25.6942   ZY=    -2.6516
   XZ=    -4.5883   YZ=    -1.1343   ZZ=    29.4755
   Eigenvalues:    24.7951    26.0868    37.6685
     84  H    Isotropic =    29.5634   Anisotropy =     5.8889
   XX=    30.1602   YX=    -1.3198   ZX=     1.5919
   XY=    -3.7737   YY=    29.6302   ZY=    -4.7210
   XZ=    -0.0063   YZ=     0.1341   ZZ=    28.8997
   Eigenvalues:    26.4981    28.7026    33.4893
     85  H    Isotropic =    29.2569   Anisotropy =    10.3484
   XX=    29.2613   YX=    -1.7488   ZX=    -4.7906
   XY=    -3.5951   YY=    28.4927   ZY=     2.2859
   XZ=    -5.1533   YZ=     2.0886   ZZ=    30.0165
   Eigenvalues:    24.5717    27.0431    36.1558
     86  H    Isotropic =    29.1743   Anisotropy =     7.7522
   XX=    31.9276   YX=    -1.2017   ZX=    -2.4456
   XY=    -2.1474   YY=    30.5201   ZY=     2.1338
   XZ=    -3.0947   YZ=     2.0753   ZZ=    25.0752
   Eigenvalues:    23.7667    29.4137    34.3424
     87  C    Isotropic =    52.0897   Anisotropy =   186.4960
   XX=   148.2296   YX=    70.3393   ZX=   -18.1438
   XY=    72.0523   YY=   -31.4629   ZY=   -13.3607
   XZ=   -18.2247   YZ=   -13.3663   ZZ=    39.5023
   Eigenvalues:   -56.7198    36.5686   176.4203
     88  C    Isotropic =    50.4954   Anisotropy =   189.1875
   XX=   151.4481   YX=    53.0086   ZX=   -41.0424
   XY=    56.4204   YY=    31.2497   ZY=    29.2993
   XZ=   -42.2556   YZ=    30.5384   ZZ=   -31.2116
   Eigenvalues:   -60.6479    35.5137   176.6203
     89  C    Isotropic =    51.9815   Anisotropy =   191.8241
   XX=   163.1886   YX=    41.3726   ZX=   -15.7170
   XY=    48.8755   YY=    25.9033   ZY=   -42.9244
   XZ=   -12.2112   YZ=   -41.6676   ZZ=   -33.1473
   Eigenvalues:   -55.5676    31.6479   179.8643
     90  C    Isotropic =    29.4825   Anisotropy =   207.0571
   XX=   137.3450   YX=    76.6028   ZX=   -26.8701
   XY=    67.1254   YY=   -41.6431   ZY=   -15.6838
   XZ=   -25.0073   YZ=   -13.0422   ZZ=    -7.2544
   Eigenvalues:   -67.3584   -11.7147   167.5206
     91  C    Isotropic =    49.3517   Anisotropy =   171.1140
   XX=   138.2190   YX=    48.8616   ZX=   -46.7068
   XY=    49.6584   YY=    32.8435   ZY=    25.5975
   XZ=   -43.1204   YZ=    29.0571   ZZ=   -23.0075
   Eigenvalues:   -53.8755    38.5029   163.4277
     92  C    Isotropic =    51.2349   Anisotropy =   188.9322
   XX=   158.0608   YX=    41.7349   ZX=   -23.7060
   XY=    43.8260   YY=    27.9863   ZY=   -50.1475
   XZ=   -20.4216   YZ=   -49.6955   ZZ=   -32.3424
   Eigenvalues:   -60.5214    37.0365   177.1898
     93  H    Isotropic =    23.8073   Anisotropy =     3.7157
   XX=    20.4631   YX=    -0.1692   ZX=     1.1769
   XY=    -0.0998   YY=    25.2410   ZY=    -0.4245
   XZ=     1.2839   YZ=    -0.6480   ZZ=    25.7179
   Eigenvalues:    20.1892    24.9483    26.2845
     94  H    Isotropic =    23.5951   Anisotropy =     9.5044
   XX=    22.0995   YX=    -0.6716   ZX=     0.5722
   XY=    -1.6465   YY=    26.6643   ZY=    -5.1993
   XZ=     1.2805   YZ=    -4.3543   ZZ=    22.0214
   Eigenvalues:    19.0217    21.8321    29.9313
     95  H    Isotropic =    24.5815   Anisotropy =     6.0915
   XX=    19.7905   YX=    -0.4299   ZX=     1.9990
   XY=    -2.0775   YY=    28.4642   ZY=     2.2312
   XZ=     3.5572   YZ=    -1.5245   ZZ=    25.4897
   Eigenvalues:    18.4923    26.6096    28.6425
     96  C    Isotropic =    48.4048   Anisotropy =    16.0053
   XX=    46.7525   YX=    -2.7163   ZX=     1.1338
   XY=    -3.1595   YY=    58.0386   ZY=    -2.8389
   XZ=    -0.5650   YZ=    -2.0311   ZZ=    40.4234
   Eigenvalues:    40.0909    46.0486    59.0750
     97  F    Isotropic =   252.4530   Anisotropy =   131.9110
   XX=   283.6950   YX=   -51.6686   ZX=    26.0674
   XY=   -46.1176   YY=   298.0210   ZY=    14.4801
   XZ=     8.8583   YZ=    27.2266   ZZ=   175.6431
   Eigenvalues:   165.9821   250.9833   340.3937
     98  F    Isotropic =   237.9844   Anisotropy =   146.3767
   XX=   256.8330   YX=    62.9373   ZX=    -5.1200
   XY=    52.1926   YY=   265.6597   ZY=   -50.0493
   XZ=   -16.1448   YZ=   -60.4119   ZZ=   191.4604
   Eigenvalues:   157.9195   220.4649   335.5688
     99  F    Isotropic =   221.5775   Anisotropy =   147.4338
   XX=   183.9153   YX=    12.0726   ZX=    83.0688
   XY=    11.2344   YY=   215.3378   ZY=    14.2942
   XZ=    81.8781   YZ=    14.0375   ZZ=   265.4794
   Eigenvalues:   132.6190   212.2468   319.8667
    100  C    Isotropic =    48.9162   Anisotropy =    12.2317
   XX=    50.0657   YX=    -3.5150   ZX=    -2.4913
   XY=    -3.5115   YY=    47.8215   ZY=     6.0881
   XZ=    -2.8343   YZ=     5.9223   ZZ=    48.8613
   Eigenvalues:    42.2150    47.4630    57.0706
    101  F    Isotropic =   257.1317   Anisotropy =   115.4024
   XX=   290.3117   YX=    -1.3958   ZX=   -32.3663
   XY=    11.7660   YY=   186.3693   ZY=    30.8782
   XZ=   -42.8530   YZ=    42.3249   ZZ=   294.7141
   Eigenvalues:   172.8152   264.5133   334.0667
    102  F    Isotropic =   224.2575   Anisotropy =   151.4475
   XX=   261.6342   YX=   -61.0579   ZX=    58.8454
   XY=   -65.7084   YY=   189.7332   ZY=     2.2677
   XZ=    61.5378   YZ=     1.3296   ZZ=   221.4050
   Eigenvalues:   137.7641   209.7858   325.2225
    103  F    Isotropic =   231.2735   Anisotropy =   149.7792
   XX=   223.4041   YX=    33.7980   ZX=    12.3778
   XY=    36.8168   YY=   294.1961   ZY=    65.7600
   XZ=     4.7845   YZ=    53.6865   ZZ=   176.2202
   Eigenvalues:   150.7661   211.9280   331.1263
    104  C    Isotropic =    48.7931   Anisotropy =    15.4056
   XX=    46.1521   YX=     4.8081   ZX=     6.6449
   XY=     4.4832   YY=    52.3312   ZY=     3.4764
   XZ=     6.2543   YZ=     4.5649   ZZ=    47.8960
   Eigenvalues:    40.4357    46.8801    59.0635
    105  F    Isotropic =   255.5155   Anisotropy =   127.5139
   XX=   261.1743   YX=    68.1492   ZX=    68.3770
   XY=    55.5307   YY=   244.8239   ZY=    -9.7147
   XZ=    51.9434   YZ=    -3.2430   ZZ=   260.5481
   Eigenvalues:   166.6287   259.3929   340.5247
    106  F    Isotropic =   215.2820   Anisotropy =   142.5931
   XX=   153.9300   YX=    29.6859   ZX=   -43.0218
   XY=    32.5053   YY=   193.4074   ZY=    -0.7827
   XZ=   -39.8049   YZ=    -2.3898   ZZ=   298.5085
   Eigenvalues:   129.1306   206.3714   310.3440
    107  F    Isotropic =   235.3174   Anisotropy =   143.7388
   XX=   175.1866   YX=   -46.9866   ZX=    28.0346
   XY=   -34.2159   YY=   318.4778   ZY=   -11.4616
   XZ=    21.9670   YZ=    -6.5477   ZZ=   212.2878
   Eigenvalues:   155.8055   219.0035   331.1432
    108  C    Isotropic =    48.3827   Anisotropy =    12.8994
   XX=    56.1328   YX=     3.3411   ZX=     1.7163
   XY=     2.7685   YY=    41.2754   ZY=    -0.0432
   XZ=     1.5255   YZ=    -0.8379   ZZ=    47.7398
   Eigenvalues:    40.5923    47.5734    56.9823
    109  F    Isotropic =   216.5024   Anisotropy =   151.9754
   XX=   205.7052   YX=     3.6216   ZX=    13.3359
   XY=     1.9973   YY=   281.4708   ZY=   -74.6978
   XZ=    12.3982   YZ=   -75.4428   ZZ=   162.3312
   Eigenvalues:   124.0569   207.6310   317.8193
    110  F    Isotropic =   242.7707   Anisotropy =   140.0286
   XX=   250.5588   YX=    41.3383   ZX=    55.7866
   XY=    48.2867   YY=   196.2736   ZY=     6.7130
   XZ=    69.2035   YZ=    -7.4543   ZZ=   281.4799
   Eigenvalues:   160.9030   231.2861   336.1231
    111  F    Isotropic =   250.1885   Anisotropy =   128.5949
   XX=   303.8220   YX=   -10.9653   ZX=   -44.4473
   XY=   -22.4084   YY=   187.0072   ZY=   -24.3169
   XZ=   -54.2769   YZ=   -39.2372   ZZ=   259.7362
   Eigenvalues:   166.1844   248.4627   335.9184
    112  C    Isotropic =    48.7821   Anisotropy =    14.1692
   XX=    50.9471   YX=    -6.3156   ZX=    -2.0640
   XY=    -6.0754   YY=    50.1605   ZY=     3.8490
   XZ=    -2.7604   YZ=     3.7221   ZZ=    45.2386
   Eigenvalues:    42.9713    45.1468    58.2282
    113  F    Isotropic =   245.7975   Anisotropy =   138.1516
   XX=   200.0230   YX=    -5.4966   ZX=    37.9748
   XY=   -15.9941   YY=   314.9963   ZY=    59.0433
   XZ=    26.6773   YZ=    43.6030   ZZ=   222.3731
   Eigenvalues:   165.8531   233.6407   337.8985
    114  F    Isotropic =   247.3847   Anisotropy =   139.5261
   XX=   333.8490   YX=   -41.3717   ZX=    12.2343
   XY=   -22.6410   YY=   183.9672   ZY=    31.5527
   XZ=     1.2620   YZ=    27.3764   ZZ=   224.3379
   Eigenvalues:   162.6212   239.1307   340.4021
    115  F    Isotropic =   223.2889   Anisotropy =   144.0675
   XX=   170.6655   YX=   -42.8884   ZX=     8.2994
   XY=   -43.4798   YY=   186.8962   ZY=   -25.7915
   XZ=     8.4353   YZ=   -25.4281   ZZ=   312.3050
   Eigenvalues:   134.2661   216.2666   319.3339
    116  C    Isotropic =    48.3377   Anisotropy =    14.6258
   XX=    52.9596   YX=     2.9567   ZX=    -7.3350
   XY=     3.8402   YY=    44.1176   ZY=     2.1116
   XZ=    -6.4921   YZ=     0.8034   ZZ=    47.9359
   Eigenvalues:    40.3267    46.5981    58.0882
    117  F    Isotropic =   217.5932   Anisotropy =   151.1468
   XX=   260.3639   YX=   -22.8078   ZX=    51.2088
   XY=   -23.6404   YY=   146.0457   ZY=   -44.0129
   XZ=    51.6426   YZ=   -45.9676   ZZ=   246.3700
   Eigenvalues:   128.7245   205.6973   318.3577
    118  F    Isotropic =   252.7659   Anisotropy =   128.1309
   XX=   261.6874   YX=    73.6074   ZX=    -5.6579
   XY=    94.7413   YY=   242.9376   ZY=   -11.6094
   XZ=    -1.0237   YZ=   -10.8267   ZZ=   253.6726
   Eigenvalues:   167.1800   252.9311   338.1865
    119  F    Isotropic =   241.8014   Anisotropy =   143.9424
   XX=   247.4712   YX=   -14.8545   ZX=   -40.4810
   XY=   -16.2815   YY=   192.1288   ZY=    73.7460
   XZ=   -38.8819   YZ=    53.0633   ZZ=   285.8043
   Eigenvalues:   159.9305   227.7107   337.7630
    120  C    Isotropic =    48.4898   Anisotropy =    14.7327
   XX=    45.0479   YX=    -0.7633   ZX=    -3.3296
   XY=    -1.7125   YY=    57.9762   ZY=     1.4662
   XZ=    -2.5105   YZ=     1.6483   ZZ=    42.4453
   Eigenvalues:    40.5261    46.6316    58.3116
    121  F    Isotropic =   242.0534   Anisotropy =   130.3685
   XX=   268.2552   YX=   -61.8594   ZX=   -61.8198
   XY=   -53.2821   YY=   244.4316   ZY=    -6.6837
   XZ=   -46.9186   YZ=    -6.9861   ZZ=   213.4733
   Eigenvalues:   161.0964   236.0980   328.9657
    122  F    Isotropic =   247.6566   Anisotropy =   135.3262
   XX=   201.2669   YX=    64.8595   ZX=   -37.5846
   XY=    43.7008   YY=   315.9982   ZY=     4.2138
   XZ=   -24.6485   YZ=     9.1365   ZZ=   225.7048
   Eigenvalues:   163.7282   241.3676   337.8741
    123  F    Isotropic =   215.0008   Anisotropy =   147.5829
   XX=   131.1863   YX=   -21.1857   ZX=    10.2020
   XY=   -20.9713   YY=   205.5119   ZY=   -20.9684
   XZ=    11.7351   YZ=   -19.6935   ZZ=   308.3043
   Eigenvalues:   125.4588   206.1543   313.3894
    124  C    Isotropic =    49.6376   Anisotropy =    17.0425
   XX=    49.9506   YX=     8.2091   ZX=     3.9683
   XY=     8.1685   YY=    51.4445   ZY=     2.4073
   XZ=     4.6607   YZ=     4.0220   ZZ=    47.5176
   Eigenvalues:    42.1909    45.7225    60.9993
    125  F    Isotropic =   256.4680   Anisotropy =   126.1921
   XX=   197.6244   YX=    45.8617   ZX=   -16.4103
   XY=    66.0101   YY=   314.3451   ZY=    28.3681
   XZ=   -16.8551   YZ=    22.3132   ZZ=   257.4344
   Eigenvalues:   168.0779   260.7300   340.5961
    126  F    Isotropic =   231.5728   Anisotropy =   132.3505
   XX=   217.5273   YX=    20.9381   ZX=    54.1014
   XY=    18.3787   YY=   188.2081   ZY=   -39.4773
   XZ=    50.3913   YZ=   -26.5858   ZZ=   288.9831
   Eigenvalues:   154.9723   219.9397   319.8065
    127  F    Isotropic =   223.0058   Anisotropy =   149.8866
   XX=   293.1524   YX=    29.2962   ZX=   -57.8022
   XY=    22.4601   YY=   161.1672   ZY=    26.0694
   XZ=   -54.1197   YZ=    29.8666   ZZ=   214.6978
   Eigenvalues:   134.2926   211.7946   322.9302
    128  H    Isotropic =    23.7429   Anisotropy =     5.0169
   XX=    20.6302   YX=    -0.1614   ZX=    -0.0474
   XY=    -0.7043   YY=    27.0584   ZY=     0.0490
   XZ=    -0.1312   YZ=    -0.0345   ZZ=    23.5401
   Eigenvalues:    20.5985    23.5427    27.0875
    129  H    Isotropic =    23.7058   Anisotropy =     7.8348
   XX=    20.5425   YX=    -1.4574   ZX=     2.1792
   XY=    -1.7254   YY=    27.5307   ZY=    -1.5120
   XZ=     2.6632   YZ=    -2.3379   ZZ=    23.0443
   Eigenvalues:    19.0507    23.1377    28.9291
    130  H    Isotropic =    29.9204   Anisotropy =    18.2332
   XX=    36.8002   YX=     8.3303   ZX=    -1.6881
   XY=     7.1636   YY=    29.7766   ZY=    -1.7721
   XZ=    -1.0299   YZ=    -2.5140   ZZ=    23.1846
   Eigenvalues:    22.4288    25.2565    42.0759
    131  H    Isotropic =    27.6247   Anisotropy =     7.7917
   XX=    28.0676   YX=     5.2909   ZX=     6.4753
   XY=     2.4659   YY=    26.2319   ZY=    -1.0642
   XZ=     1.9747   YZ=    -3.2490   ZZ=    28.5745
   Eigenvalues:    20.6886    29.3662    32.8192
 End of Minotr F.D. properties file   721 does not exist.
 End of Minotr F.D. properties file   722 does not exist.
 End of Minotr F.D. properties file   788 does not exist.
 Hyperfine terms turned off by default for NAtoms > 100.

 **********************************************************************

            Population analysis using the SCF density.

 **********************************************************************

 Orbital symmetries:
       Occupied  (A) (A) (A) (A) (A) (A) (A) (A) (A) (A) (A) (A)
                 (A) (A) (A) (A) (A) (A) (A) (A) (A) (A) (A) (A)
                 (A) (A) (A) (A) (A) (A) (A) (A) (A) (A) (A) (A)
                 (A) (A) (A) (A) (A) (A) (A) (A) (A) (A) (A) (A)
                 (A) (A) (A) (A) (A) (A) (A) (A) (A) (A) (A) (A)
                 (A) (A) (A) (A) (A) (A) (A) (A) (A) (A) (A) (A)
                 (A) (A) (A) (A) (A) (A) (A) (A) (A) (A) (A) (A)
                 (A) (A) (A) (A) (A) (A) (A) (A) (A) (A) (A) (A)
                 (A) (A) (A) (A) (A) (A) (A) (A) (A) (A) (A) (A)
                 (A) (A) (A) (A) (A) (A) (A) (A) (A) (A) (A) (A)
                 (A) (A) (A) (A) (A) (A) (A) (A) (A) (A) (A) (A)
                 (A) (A) (A) (A) (A) (A) (A) (A) (A) (A) (A) (A)
                 (A) (A) (A) (A) (A) (A) (A) (A) (A) (A) (A) (A)
                 (A) (A) (A) (A) (A) (A) (A) (A) (A) (A) (A) (A)
                 (A) (A) (A) (A) (A) (A) (A) (A) (A) (A) (A) (A)
                 (A) (A) (A) (A) (A) (A) (A) (A) (A) (A) (A) (A)
                 (A) (A) (A) (A) (A) (A) (A) (A) (A) (A) (A) (A)
                 (A) (A) (A) (A) (A) (A) (A) (A) (A) (A) (A) (A)
                 (A) (A) (A) (A) (A) (A) (A) (A) (A) (A) (A) (A)
                 (A) (A) (A) (A) (A) (A) (A) (A) (A) (A) (A) (A)
                 (A) (A) (A) (A) (A) (A) (A) (A) (A) (A) (A) (A)
                 (A) (A) (A) (A) (A) (A) (A) (A) (A) (A) (A) (A)
                 (A) (A) (A) (A) (A) (A) (A) (A) (A) (A) (A) (A)
                 (A) (A) (A) (A) (A) (A) (A) (A) (A) (A) (A) (A)
                 (A) (A) (A) (A) (A) (A) (A) (A) (A) (A) (A) (A)
                 (A) (A) (A) (A) (A) (A) (A) (A) (A) (A) (A) (A)
                 (A) (A) (A) (A) (A) (A) (A) (A) (A) (A) (A) (A)
                 (A) (A) (A) (A) (A) (A) (A) (A) (A) (A) (A) (A)
                 (A) (A) (A)
       Virtual   (A) (A) (A) (A) (A) (A) (A) (A) (A) (A) (A) (A)
                 (A) (A) (A) (A) (A) (A) (A) (A) (A) (A) (A) (A)
                 (A) (A) (A) (A) (A) (A) (A) (A) (A) (A) (A) (A)
                 (A) (A) (A) (A) (A) (A) (A) (A) (A) (A) (A) (A)
                 (A) (A) (A) (A) (A) (A) (A) (A) (A) (A) (A) (A)
                 (A) (A) (A) (A) (A) (A) (A) (A) (A) (A) (A) (A)
                 (A) (A) (A) (A) (A) (A) (A) (A) (A) (A) (A) (A)
                 (A) (A) (A) (A) (A) (A) (A) (A) (A) (A) (A) (A)
                 (A) (A) (A) (A) (A) (A) (A) (A) (A) (A) (A) (A)
                 (A) (A) (A) (A) (A) (A) (A) (A) (A) (A) (A) (A)
                 (A) (A) (A) (A) (A) (A) (A) (A) (A) (A) (A) (A)
                 (A) (A) (A) (A) (A) (A) (A) (A) (A) (A) (A) (A)
                 (A) (A) (A) (A) (A) (A) (A) (A) (A) (A) (A) (A)
                 (A) (A) (A) (A) (A) (A) (A) (A) (A) (A) (A) (A)
                 (A) (A) (A) (A) (A) (A) (A) (A) (A) (A) (A) (A)
                 (A) (A) (A) (A) (A) (A) (A) (A) (A) (A) (A) (A)
                 (A) (A) (A) (A) (A) (A) (A) (A) (A) (A) (A) (A)
                 (A) (A) (A) (A) (A) (A) (A) (A) (A) (A) (A) (A)
                 (A) (A) (A) (A) (A) (A) (A) (A) (A) (A) (A) (A)
                 (A) (A) (A) (A) (A) (A) (A) (A) (A) (A) (A) (A)
                 (A) (A) (A) (A) (A) (A) (A) (A) (A) (A) (A) (A)
                 (A) (A) (A) (A) (A) (A) (A) (A) (A) (A) (A) (A)
                 (A) (A) (A) (A) (A) (A) (A) (A) (A) (A) (A) (A)
                 (A) (A) (A) (A) (A) (A) (A) (A) (A) (A) (A) (A)
                 (A) (A) (A) (A) (A) (A) (A) (A) (A) (A) (A) (A)
                 (A) (A) (A) (A) (A) (A) (A) (A) (A) (A) (A) (A)
                 (A) (A) (A) (A) (A) (A) (A) (A) (A) (A) (A) (A)
                 (A) (A) (A) (A) (A) (A) (A) (A) (A) (A) (A) (A)
                 (A) (A) (A) (A) (A) (A) (A) (A) (A) (A) (A) (A)
                 (A) (A) (A) (A) (A) (A) (A) (A) (A) (A) (A) (A)
                 (A) (A) (A) (A) (A) (A) (A) (A) (A) (A) (A) (A)
                 (A) (A) (A) (A) (A) (A) (A) (A) (A) (A) (A) (A)
                 (A) (A) (A) (A) (A) (A) (A) (A) (A) (A) (A) (A)
                 (A) (A) (A) (A) (A) (A) (A) (A) (A) (A) (A) (A)
                 (A) (A) (A) (A) (A) (A) (A) (A) (A) (A) (A) (A)
                 (A) (A) (A) (A) (A) (A) (A) (A) (A) (A) (A) (A)
                 (A) (A) (A) (A) (A) (A) (A) (A) (A) (A) (A) (A)
                 (A) (A) (A) (A) (A) (A) (A) (A) (A) (A) (A) (A)
                 (A) (A) (A) (A) (A) (A) (A) (A) (A) (A) (A) (A)
                 (A) (A) (A) (A) (A) (A) (A) (A) (A) (A) (A) (A)
                 (A) (A) (A) (A) (A) (A) (A) (A) (A) (A) (A) (A)
                 (A) (A) (A) (A) (A) (A) (A) (A) (A) (A) (A) (A)
                 (A) (A) (A) (A) (A) (A) (A) (A) (A) (A) (A) (A)
                 (A) (A) (A) (A) (A) (A) (A) (A) (A) (A) (A) (A)
                 (A) (A) (A) (A) (A) (A) (A) (A) (A) (A) (A) (A)
                 (A) (A) (A) (A) (A) (A) (A) (A) (A) (A) (A) (A)
                 (A) (A) (A) (A) (A) (A) (A) (A) (A) (A) (A) (A)
                 (A) (A) (A) (A) (A) (A) (A) (A) (A) (A) (A) (A)
                 (A) (A) (A) (A) (A) (A) (A) (A) (A) (A) (A) (A)
                 (A) (A) (A) (A) (A) (A) (A) (A) (A) (A) (A) (A)
                 (A) (A) (A) (A) (A) (A) (A) (A) (A) (A) (A) (A)
                 (A) (A) (A) (A) (A) (A) (A) (A) (A) (A) (A) (A)
                 (A) (A) (A) (A) (A) (A) (A) (A) (A) (A) (A) (A)
                 (A) (A) (A) (A) (A) (A) (A) (A) (A) (A) (A) (A)
                 (A) (A) (A) (A) (A) (A) (A) (A) (A) (A) (A) (A)
                 (A) (A) (A) (A) (A) (A) (A) (A) (A) (A) (A) (A)
                 (A) (A) (A) (A) (A) (A) (A) (A) (A) (A) (A) (A)
                 (A) (A) (A) (A) (A) (A) (A) (A) (A) (A) (A) (A)
                 (A) (A) (A) (A) (A) (A) (A) (A) (A) (A) (A) (A)
                 (A) (A) (A) (A) (A) (A) (A) (A) (A) (A) (A) (A)
                 (A) (A) (A) (A) (A) (A) (A) (A) (A) (A) (A) (A)
                 (A) (A) (A) (A) (A) (A) (A) (A) (A) (A) (A) (A)
                 (A) (A) (A) (A) (A) (A) (A) (A) (A) (A) (A) (A)
[...]
  2358. RY*(  22) C 108                  0.00000    21.42947   
  2359. RY*(  23) C 108                  0.00000     3.44143   
  2360. RY*(  24) C 108                  0.00000     2.53827   
  2361. RY*(  25) C 108                  0.00001     3.12618   
  2362. RY*(  26) C 108                  0.00000     3.35289   
  2363. RY*(   1) F 109                  0.00080     2.94131   
  2364. RY*(   2) F 109                  0.00054     1.33067   
  2365. RY*(   3) F 109                  0.00047     1.04209   
  2366. RY*(   4) F 109                  0.00027     2.77190   
  2367. RY*(   5) F 109                  0.00017     3.12674   
  2368. RY*(   6) F 109                  0.00014     2.99527   
  2369. RY*(   7) F 109                  0.00005     2.77146   
  2370. RY*(   8) F 109                  0.00003     2.84715   
  2371. RY*(   9) F 109                  0.00001     3.76785   
  2372. RY*(  10) F 109                  0.00001     3.72967   
  2373. RY*(  11) F 109                  0.00000     8.18509   
  2374. RY*(  12) F 109                  0.00001     3.66862   
  2375. RY*(  13) F 109                  0.00000     7.89936   
  2376. RY*(  14) F 109                  0.00000    54.94881   
  2377. RY*(  15) F 109                  0.00000     8.33214   
  2378. RY*(  16) F 109                  0.00000     3.22475   
  2379. RY*(  17) F 109                  0.00000     8.31200   
  2380. RY*(  18) F 109                  0.00001     2.18053   
  2381. RY*(  19) F 109                  0.00000     7.85789   
  2382. RY*(  20) F 109                  0.00000     6.85699   
  2383. RY*(  21) F 109                  0.00000     6.74211   
  2384. RY*(  22) F 109                  0.00000     6.82260   
  2385. RY*(  23) F 109                  0.00000     6.76391   
  2386. RY*(  24) F 109                  0.00000     6.80038   
  2387. RY*(  25) F 109                  0.00000     6.88486   
  2388. RY*(  26) F 109                  0.00000     6.82074   
  2389. RY*(   1) F 110                  0.00074     3.81312   
  2390. RY*(   2) F 110                  0.00050     1.13049   
  2391. RY*(   3) F 110                  0.00039     1.23682   
  2392. RY*(   4) F 110                  0.00023     2.68210   
  2393. RY*(   5) F 110                  0.00014     2.89323   
  2394. RY*(   6) F 110                  0.00007     2.31191   
  2395. RY*(   7) F 110                  0.00004     2.72044   
  2396. RY*(   8) F 110                  0.00005     2.82614   
  2397. RY*(   9) F 110                  0.00000     2.98740   
  2398. RY*(  10) F 110                  0.00001     2.34103   
  2399. RY*(  11) F 110                  0.00000     8.28189   
  2400. RY*(  12) F 110                  0.00000     3.39980   
  2401. RY*(  13) F 110                  0.00000     8.44454   
  2402. RY*(  14) F 110                  0.00000    55.46906   
  2403. RY*(  15) F 110                  0.00000     7.98484   
  2404. RY*(  16) F 110                  0.00001     3.13425   
  2405. RY*(  17) F 110                  0.00000     8.06480   
  2406. RY*(  18) F 110                  0.00001     3.11938   
  2407. RY*(  19) F 110                  0.00000     8.16699   
  2408. RY*(  20) F 110                  0.00000     6.88924   
  2409. RY*(  21) F 110                  0.00000     6.84604   
  2410. RY*(  22) F 110                  0.00000     6.79736   
  2411. RY*(  23) F 110                  0.00000     6.87008   
  2412. RY*(  24) F 110                  0.00000     6.88506   
  2413. RY*(  25) F 110                  0.00000     6.77787   
  2414. RY*(  26) F 110                  0.00000     6.89571   
  2415. RY*(   1) F 111                  0.00073     3.82781   
  2416. RY*(   2) F 111                  0.00055     1.10506   
  2417. RY*(   3) F 111                  0.00041     1.19102   
  2418. RY*(   4) F 111                  0.00023     2.54081   
  2419. RY*(   5) F 111                  0.00015     2.92475   
  2420. RY*(   6) F 111                  0.00009     2.49508   
  2421. RY*(   7) F 111                  0.00005     3.03795   
  2422. RY*(   8) F 111                  0.00003     2.72930   
  2423. RY*(   9) F 111                  0.00002     3.54171   
  2424. RY*(  10) F 111                  0.00000     3.21107   
  2425. RY*(  11) F 111                  0.00000     7.67872   
  2426. RY*(  12) F 111                  0.00000    55.47799   
  2427. RY*(  13) F 111                  0.00000     7.97541   
  2428. RY*(  14) F 111                  0.00001     3.56805   
  2429. RY*(  15) F 111                  0.00000     7.92923   
  2430. RY*(  16) F 111                  0.00000     2.43613   
  2431. RY*(  17) F 111                  0.00000     8.13989   
  2432. RY*(  18) F 111                  0.00000     3.51808   
  2433. RY*(  19) F 111                  0.00000     8.15329   
  2434. RY*(  20) F 111                  0.00000     6.71041   
  2435. RY*(  21) F 111                  0.00000     6.90424   
  2436. RY*(  22) F 111                  0.00000     6.81315   
  2437. RY*(  23) F 111                  0.00000     6.85328   
  2438. RY*(  24) F 111                  0.00000     6.76076   
  2439. RY*(  25) F 111                  0.00000     6.75224   
  2440. RY*(  26) F 111                  0.00000     6.88420   
  2857. RY*(   1) H 128                  0.00033     1.17191   
  2858. RY*(   2) H 128                  0.00019     1.68552   
  2859. RY*(   3) H 128                  0.00014     2.15322   
  2860. RY*(   4) H 128                  0.00008     2.73227   
  2861. RY*(   5) H 128                  0.00001     3.06639   
  2862. RY*(   1) H 129                  0.00037     1.25326   
  2863. RY*(   2) H 129                  0.00019     1.68421   
  2864. RY*(   3) H 129                  0.00014     2.17453   
  2865. RY*(   4) H 129                  0.00009     2.71540   
  2866. RY*(   5) H 129                  0.00001     3.08780   
  2881. BD*(   1) P   3 - C   9          0.04007     0.19543   
  2882. BD*(   1) P   3 - C  26          0.04009     0.18976   
  2883. BD*(   1) P   3 - C  32          0.04280     0.18909   
  2895. BD*(   1) C   9 - C  10          0.04373     0.41568   
  2896. BD*(   1) C   9 - C  13          0.05083     0.37556   
  2897. BD*(   2) C   9 - C  13          0.50896     0.01307  2899(v),270(v),2896(g)
                                                    263(r),266(r),2882(v),666(g)
                                                    565(g),2905(g),563(g),673(g)
                                                    2881(g),682(g),2883(v)
                                                    2877(r),2935(r),2892(r)
                                                    403(v),2900(v),264(r),346(r)
                                                    267(r),356(r),359(r),372(r)
                                                    350(r),369(r),2922(r),353(r)
                                                    2981(r)
  2898. BD*(   1) C  10 - C  11          0.04290     0.41406   
  2899. BD*(   2) C  10 - C  11          0.44247     0.02239  2897(v),3008(r),270(v)
                                                    2898(g),263(r),266(r)
                                                    2967(v),2965(v),2900(g)
                                                    2892(r),2877(r),592(g)
                                                    623(g),3003(r),265(r)
                                                    2887(r),264(r),365(r),374(r)
  2900. BD*(   1) C  10 - C  55          0.03571     0.35522   
  2901. BD*(   1) C  11 - C  12          0.02879     0.43827   
  2902. BD*(   1) C  11 - H  54          0.01517     0.40089   
  2903. BD*(   1) C  12 - C  13          0.03051     0.42702   
  2904. BD*(   1) C  12 - H  53          0.01743     0.39796   
  2905. BD*(   1) C  13 - H  39          0.01728     0.39977   
  2934. BD*(   1) C  26 - C  27          0.02938     0.49189   
  2935. BD*(   2) C  26 - C  27          0.33898    -0.01381  2940(v),2945(v),2883(v)
                                                    1006(g),1031(g),2922(r)
                                                    1032(g)
  2936. BD*(   1) C  26 - C  31          0.02283     0.48970   
  2937. BD*(   1) C  27 - C  28          0.02469     0.49531   
  2938. BD*(   1) C  27 - H  46          0.01717     0.39673   
  2939. BD*(   1) C  28 - C  29          0.01975     0.49443   
  2940. BD*(   2) C  28 - C  29          0.33127    -0.01229  2945(v),2935(v),3014(v)
                                                    1083(g),3013(v)
  2941. BD*(   1) C  28 - C  96          0.06692     0.29467   
  2942. BD*(   1) C  29 - C  30          0.01949     0.48874   
  2943. BD*(   1) C  29 - H  47          0.01199     0.37319   
  2944. BD*(   1) C  30 - C  31          0.02208     0.49133   
  2945. BD*(   2) C  30 - C  31          0.33121    -0.01181  2940(v),2935(v),3016(v)
                                                    3017(v),1135(g),2933(r)
  2946. BD*(   1) C  30 - C 100          0.06755     0.29365   
  2947. BD*(   1) C  31 - H  48          0.01553     0.37201   
  2948. BD*(   1) C  32 - C  33          0.03004     0.49109   
  2949. BD*(   2) C  32 - C  33          0.33018    -0.01946  2959(v),2954(v),2881(v)
                                                    1188(g)
  2950. BD*(   1) C  32 - C  37          0.02239     0.48211   
  2951. BD*(   1) C  33 - C  34          0.02375     0.48127   
  2952. BD*(   1) C  33 - H  49          0.01632     0.37863   
  2953. BD*(   1) C  34 - C  35          0.01972     0.48608   
  2954. BD*(   2) C  34 - C  35          0.33278    -0.02205  2959(v),2949(v),3019(v)
                                                    3020(v),1239(g)
  2955. BD*(   1) C  34 - C 104          0.06693     0.28718   
  2956. BD*(   1) C  35 - C  36          0.01986     0.47884   
  2957. BD*(   1) C  35 - H  50          0.01225     0.36730   
  2958. BD*(   1) C  36 - C  37          0.02281     0.48372   
  2959. BD*(   2) C  36 - C  37          0.33608    -0.02172  2954(v),2949(v),3021(v)
                                                    3022(v),1292(g),3023(v)
  2960. BD*(   1) C  36 - C 108          0.06676     0.28432   
  2961. BD*(   1) C  37 - H  51          0.01554     0.36832   
  2965. BD*(   1) C  55 - N  77          0.03825     0.30824   
  2966. BD*(   1) C  55 - H  78          0.04464     0.33912   
  2967. BD*(   1) C  55 - C  90          0.03290     0.36758   
  2990. BD*(   1) N  77 - C  79          0.01308     0.32876   
  2991. BD*(   1) N  77 - C  80          0.01428     0.33169   
  2992. BD*(   1) C  79 - H  81          0.02964     0.34913   
  2993. BD*(   1) C  79 - H  82          0.01014     0.37449   
  2994. BD*(   1) C  79 - H  83          0.00966     0.36191   
  2995. BD*(   1) C  80 - H  84          0.03151     0.34498   
  2996. BD*(   1) C  80 - H  85          0.01016     0.36449   
  2997. BD*(   1) C  80 - H  86          0.01094     0.37705   
  2998. BD*(   1) C  87 - C  88          0.01483     0.52145   
  2999. BD*(   1) C  87 - C  92          0.01457     0.52619   
  3000. BD*(   2) C  87 - C  92          0.32912     0.01501  3003(v),3008(v),1856(g)
                                                    1986(g)
  3001. BD*(   1) C  87 - H  93          0.01327     0.39823   
  3002. BD*(   1) C  88 - C  89          0.01426     0.53425   
  3003. BD*(   2) C  88 - C  89          0.31979     0.01811  3000(v),3008(v),1882(g)
  3004. BD*(   1) C  88 - H 128          0.01365     0.39548   
  3005. BD*(   1) C  89 - C  90          0.02678     0.52218   
  3006. BD*(   1) C  89 - H  94          0.01568     0.40501   
  3007. BD*(   1) C  90 - C  91          0.02355     0.53382   
  3008. BD*(   2) C  90 - C  91          0.34315     0.02440  3003(v),3000(v),2899(r)
                                                    1960(g),2900(v),2965(v)
                                                    2887(r),2892(r)
  3009. BD*(   1) C  91 - C  92          0.01456     0.52929   
  3010. BD*(   1) C  91 - H  95          0.01792     0.40691   
  3011. BD*(   1) C  92 - H 129          0.01346     0.40149   
  3012. BD*(   1) C  96 - F  97          0.08817     0.19882   
  3013. BD*(   1) C  96 - F  98          0.09406     0.19030   
  3014. BD*(   1) C  96 - F  99          0.09825     0.19508   
  3015. BD*(   1) C 100 - F 101          0.08629     0.20523   
  3016. BD*(   1) C 100 - F 102          0.09788     0.19797   
  3017. BD*(   1) C 100 - F 103          0.09565     0.19625   
  3018. BD*(   1) C 104 - F 105          0.08697     0.19330   
  3019. BD*(   1) C 104 - F 106          0.10068     0.18071  2954(v),2239(g)
  3020. BD*(   1) C 104 - F 107          0.09271     0.19230   
  3021. BD*(   1) C 108 - F 109          0.10337     0.17475  2959(v),2343(g)
  3022. BD*(   1) C 108 - F 110          0.08992     0.19136   
  3023. BD*(   1) C 108 - F 111          0.08764     0.19253   
       -------------------------------
              Total Lewis  323.65546  ( 97.8285%)
        Valence non-Lewis    6.53237  (  1.9745%)
        Rydberg non-Lewis    0.65186  (  0.1970%)
       -------------------------------
            Total unit  2  330.83969  (100.0000%)
           Charge unit  2    0.16031
 1\1\GINC-NC211\SP\RPBE1PBE\Gen\C60H42F24Fe1N2P2\MACKK4\02-Dec-2021\0\\
 # PBE1PBE gen pseudo=read int=(grid=ultrafine) empiricaldispersion=GD3
 BJ pop=nbo guess=read geom=check\\M003_1_3 title\\0,1\Fe,0,-0.00784836
 2,-1.4974359897,1.6768757416\P,0,1.7984512787,-0.0735216738,-0.7894203
 292\P,0,-1.7838977129,0.2983138221,-0.5452403664\C,0,1.5083812263,-1.4
 256009952,0.3877113009\C,0,0.5655989362,-2.4559411688,-0.0129331377\C,
 0,0.4714419934,-3.4177814407,1.0372982665\C,0,1.3304094609,-2.99750795
 98,2.0962437543\C,0,2.0007641796,-1.7755981143,1.7203500694\C,0,-1.519
 3981296,-0.2786729104,1.1752973768\C,0,-2.0309155259,-1.3795837449,1.9
 943675506\C,0,-1.3226083221,-1.324859862,3.2486618764\C,0,-0.418449693
 7,-0.2205526097,3.2404864486\C,0,-0.5295353823,0.4273730837,1.97198065
 45\C,0,3.3593265449,-0.5859807116,-1.6115937648\C,0,4.2018470581,0.370
 1984798,-2.205094377\C,0,5.3974548383,-0.035605581,-2.8114264939\C,0,5
 .7586940965,-1.3885054312,-2.8414695389\C,0,4.9081428033,-2.338172963,
 -2.261516469\C,0,3.7083352911,-1.9434400298,-1.6552810405\C,0,2.278067
 0527,1.5022734091,0.0391251394\C,0,3.5201482686,1.6792150548,0.6782609
 611\C,0,3.8386671563,2.9281607883,1.2324843691\C,0,2.9380133905,4.0019
 023818,1.1581675923\C,0,1.715336306,3.8257113513,0.5046542057\C,0,1.39
 29973627,2.5868139121,-0.0669045949\C,0,-2.465927271,1.9825532431,-0.2
 015694081\C,0,-3.1367094408,2.2062714148,1.0119369117\C,0,-3.676172839
 8,3.4672141316,1.3016031565\C,0,-3.5315652003,4.5209059849,0.394516598
 2\C,0,-2.8522780898,4.2981018636,-0.812414641\C,0,-2.3248768257,3.0387
 578129,-1.1213746415\C,0,-3.2109922541,-0.6577405949,-1.2027467167\C,0
 ,-4.5336497134,-0.3180231243,-0.8927222447\C,0,-5.5913385314,-1.089418
 1399,-1.4004934878\C,0,-5.3380532607,-2.1893986658,-2.2257613611\C,0,-
 4.0113294918,-2.5089676962,-2.5553457242\C,0,-2.9515282347,-1.74766966
 67,-2.0517192606\H,0,0.0039386026,-2.4517528502,-0.9484559572\H,0,0.04
 51058597,1.2933001279,1.644636708\H,0,3.9355672317,1.4287788104,-2.194
 9471606\H,0,6.6965481771,-1.6979320935,-3.3097012069\H,0,3.0560265411,
 -2.6991934732,-1.2126458409\H,0,4.224476162,0.8396951013,0.734284678\H
 ,0,3.1997085785,4.9726552064,1.5851275366\H,0,0.4578874536,2.465523292
 1,-0.6253549488\H,0,-3.242511787,1.400229225,1.7412411897\H,0,-3.93660
 98159,5.5092765555,0.6269691184\H,0,-1.8189042228,2.8697358381,-2.0766
 114186\H,0,-4.7544068443,0.5518791071,-0.2678678899\H,0,-6.1651801135,
 -2.7775160605,-2.6297493715\H,0,-1.9248693521,-1.9697148624,-2.3555288
 373\C,0,3.0681727012,-1.0519515169,2.5128112997\H,0,0.2908222464,0.030
 4134062,4.0293078484\H,0,-1.4528678733,-2.0363720962,4.0621601425\C,0,
 -3.2033988667,-2.3255872404,1.7644819022\H,0,2.8673056342,0.0320290174
 ,2.4156818743\N,0,4.3980312158,-1.2428788906,1.8640877463\C,0,5.475351
 8335,-0.6178388677,2.6372260212\C,0,4.7671225058,-2.6184782377,1.52857
 62361\H,0,6.3690873564,-0.5264225682,1.9965507798\H,0,5.1768547456,0.3
 884122631,2.9656671478\H,0,5.7506738713,-1.2005158162,3.5436271454\H,0
 ,5.612570109,-2.5986852575,0.8213855499\H,0,5.082446745,-3.2181810513,
 2.4117580573\H,0,3.9300717681,-3.1352274517,1.0358065394\C,0,3.0393795
 406,-1.732952136,6.8182765812\C,0,3.2865702299,-2.807975397,5.95266165
 39\C,0,3.2861516548,-2.6155612846,4.5639056519\C,0,3.0334401648,-1.342
 3088328,4.0127878991\C,0,2.8207652259,-0.267288042,4.8974394428\C,0,2.
 8122320595,-0.456315301,6.2857986749\H,0,3.0370378429,-1.8874868437,7.
 9018579808\H,0,3.4843115814,-3.8050967705,6.3597488071\H,0,3.489627833
 ,-3.4667517852,3.908432251\H,0,2.6784714972,0.7398557226,4.4852548584\
 H,0,2.6380476754,0.395624247,6.9511092338\N,0,-4.1847876679,-2.1492872
 744,2.8666992873\H,0,-3.6655750019,-2.0701407973,0.7889898279\C,0,-5.3
 685484648,-2.9871056388,2.630360387\C,0,-4.6165116104,-0.7555268028,3.
 008453853\H,0,-5.9155514228,-2.7060012445,1.7019320818\H,0,-5.07737844
 48,-4.0459065445,2.5609115373\H,0,-6.059327135,-2.8712531555,3.4822767
 485\H,0,-5.1259621951,-0.3576179992,2.1000820424\H,0,-5.3329599849,-0.
 690518876,3.84429014\H,0,-3.7601514201,-0.1085326114,3.2539834523\C,0,
 -1.8720270274,-6.454054718,1.4531179157\C,0,-1.9053792206,-5.821514554
 4,2.7074848941\C,0,-2.3530588924,-4.4988070219,2.8221285112\C,0,-2.762
 155525,-3.7840303487,1.6811162209\C,0,-2.7574689565,-4.4350255137,0.43
 78592944\C,0,-2.3119162751,-5.7591076246,0.317438372\H,0,-1.5204993757
 ,-7.487231052,1.3669518776\H,0,-2.4172654174,-4.0209360926,3.804173644
 \H,0,-3.1107964782,-3.9032260514,-0.4480675355\C,0,-4.3483604872,3.672
 0364444,2.6371147118\F,0,-5.1654603124,4.754843301,2.6362075035\F,0,-5
 .0963171815,2.5838312481,2.9831088646\F,0,-3.430971252,3.8504852574,3.
 6278713482\C,0,-2.7049377989,5.4534932438,-1.776959621\F,0,-1.86460254
 66,5.1683737338,-2.797300066\F,0,-3.9104716506,5.79598024,-2.309483901
 \F,0,-2.2283192333,6.5570677525,-1.1332732558\C,0,-7.000218341,-0.7236
 222767,-1.0019453784\F,0,-7.930472567,-1.4043976962,-1.7150529314\F,0,
 -7.2176058291,-0.9995037288,0.3218835292\F,0,-7.2306813855,0.604897146
 6,-1.164350329\C,0,-3.725208196,-3.7147673658,-3.4186695342\F,0,-3.691
 7019832,-4.8586614228,-2.6607314675\F,0,-4.6863538707,-3.8969880219,-4
 .3581612055\F,0,-2.5285141455,-3.6186496868,-4.0450583987\C,0,6.270640
 8306,0.9929792709,-3.4906452751\F,0,6.1977194743,2.1979538593,-2.86196
 5414\F,0,7.5771801158,0.6088701403,-3.4989378553\F,0,5.8972385533,1.18
 56759942,-4.7813650444\C,0,5.3404431236,-3.7816594721,-2.2105613129\F,
 0,6.2612193686,-3.9808230736,-1.2164316759\F,0,4.2993308022,-4.6191458
 671,-1.9609899813\F,0,5.9271108635,-4.1735062701,-3.3703635022\C,0,5.1
 428737844,3.1131447537,1.9708891399\F,0,6.1381719974,2.361597496,1.436
 2867934\F,0,5.5472595848,4.4075078224,1.9715398048\F,0,5.0109395197,2.
 7356580947,3.2824168724\C,0,0.7026944517,4.9427975072,0.413556628\F,0,
 1.2059677071,6.1296859006,0.8312257922\F,0,0.2607000981,5.0957466167,-
 0.8618526599\F,0,-0.3866172187,4.6606450023,1.1873758069\H,0,-1.588571
 914,-6.3661015346,3.6033703265\H,0,-2.3192390275,-6.240311271,-0.66576
 03175\H,0,-0.1928529826,-4.2794863285,1.0550924728\H,0,1.4090479514,-3
 .4766584211,3.0705024283\\Version=ES64L-G09RevE.01\State=1-A\HF=-5620.
 8664406\RMSD=9.544e-10\Dipole=-0.4529716,-1.4240756,1.6050086\Quadrupo
 le=-15.5167068,2.9872317,12.5294751,3.9920042,12.4271789,-6.8618602\PG
 =C01 [X(C60H42F24Fe1N2P2)]\\@


 MODELS ARE TO BE USED, NOT BELIEVED.

    -- PARAPHRASED BY H. THIEL IN "PRINCIPLES OF ECONOMETRICS"
 Job cpu time:       0 days 20 hours 28 minutes 43.4 seconds.
 File lengths (MBytes):  RWF=   4716 Int=      0 D2E=      0 Chk=    648 Scr=      1
 Normal termination of Gaussian 09 at Thu Dec  2 11:04:16 2021.
