 Entering Gaussian System, Link 0=g09
 Input=XantPhos_4_SPE.com
 Output=XantPhos_4_SPE.log
 Initial command:
 /gstore/apps/gaussian/g09.e01-foss-2017a/g09/l1.exe "/local/22791536/Gau-24149.inp" -scrdir="/local/22791536/"
 Entering Link 1 = /gstore/apps/gaussian/g09.e01-foss-2017a/g09/l1.exe PID=     24150.
  
 Copyright (c) 1988,1990,1992,1993,1995,1998,2003,2009,2015,
            Gaussian, Inc.  All Rights Reserved.
  
 This is part of the Gaussian(R) 09 program.  It is based on
 the Gaussian(R) 03 system (copyright 2003, Gaussian, Inc.),
 the Gaussian(R) 98 system (copyright 1998, Gaussian, Inc.),
 the Gaussian(R) 94 system (copyright 1995, Gaussian, Inc.),
 the Gaussian 92(TM) system (copyright 1992, Gaussian, Inc.),
 the Gaussian 90(TM) system (copyright 1990, Gaussian, Inc.),
 the Gaussian 88(TM) system (copyright 1988, Gaussian, Inc.),
 the Gaussian 86(TM) system (copyright 1986, Carnegie Mellon
 University), and the Gaussian 82(TM) system (copyright 1983,
 Carnegie Mellon University). Gaussian is a federally registered
 trademark of Gaussian, Inc.
  
 This software contains proprietary and confidential information,
 including trade secrets, belonging to Gaussian, Inc.
  
 This software is provided under written license and may be
 used, copied, transmitted, or stored only in accord with that
 written license.
  
 The following legend is applicable only to US Government
 contracts under FAR:
  
                    RESTRICTED RIGHTS LEGEND
  
 Use, reproduction and disclosure by the US Government is
 subject to restrictions as set forth in subparagraphs (a)
 and (c) of the Commercial Computer Software - Restricted
 Rights clause in FAR 52.227-19.
  
 Gaussian, Inc.
 340 Quinnipiac St., Bldg. 40, Wallingford CT 06492
  
  
 ---------------------------------------------------------------
 Warning -- This program may not be used in any manner that
 competes with the business of Gaussian, Inc. or will provide
 assistance to any competitor of Gaussian, Inc.  The licensee
 of this program is prohibited from giving any competitor of
 Gaussian, Inc. access to this program.  By using this program,
 the user acknowledges that Gaussian, Inc. is engaged in the
 business of creating and licensing software in the field of
 computational chemistry and represents and warrants to the
 licensee that it is not a competitor of Gaussian, Inc. and that
 it will not use this program in any manner prohibited above.
 ---------------------------------------------------------------
  

 Cite this work as:
 Gaussian 09, Revision E.01,
 M. J. Frisch, G. W. Trucks, H. B. Schlegel, G. E. Scuseria, 
 M. A. Robb, J. R. Cheeseman, G. Scalmani, V. Barone, B. Mennucci, 
 G. A. Petersson, H. Nakatsuji, M. Caricato, X. Li, H. P. Hratchian, 
 A. F. Izmaylov, J. Bloino, G. Zheng, J. L. Sonnenberg, M. Hada, 
 M. Ehara, K. Toyota, R. Fukuda, J. Hasegawa, M. Ishida, T. Nakajima, 
 Y. Honda, O. Kitao, H. Nakai, T. Vreven, J. A. Montgomery, Jr., 
 J. E. Peralta, F. Ogliaro, M. Bearpark, J. J. Heyd, E. Brothers, 
 K. N. Kudin, V. N. Staroverov, T. Keith, R. Kobayashi, J. Normand, 
 K. Raghavachari, A. Rendell, J. C. Burant, S. S. Iyengar, J. Tomasi, 
 M. Cossi, N. Rega, J. M. Millam, M. Klene, J. E. Knox, J. B. Cross, 
 V. Bakken, C. Adamo, J. Jaramillo, R. Gomperts, R. E. Stratmann, 
 O. Yazyev, A. J. Austin, R. Cammi, C. Pomelli, J. W. Ochterski, 
 R. L. Martin, K. Morokuma, V. G. Zakrzewski, G. A. Voth, 
 P. Salvador, J. J. Dannenberg, S. Dapprich, A. D. Daniels, 
 O. Farkas, J. B. Foresman, J. V. Ortiz, J. Cioslowski, 
 and D. J. Fox, Gaussian, Inc., Wallingford CT, 2013.
 
 ******************************************
 Gaussian 09:  ES64L-G09RevE.01 30-Nov-2015
                 6-Dec-2021 
 ******************************************
 %nprocs=14
 Will use up to   14 processors via shared memory.
 %mem=128GB
 %chk=XantPhos_4_SPE.chk
 ----------------------------------------------------------------------
 # PBE1PBE gen pseudo=read int=(grid=ultrafine) empiricaldispersion=GD3
 BJ nmr=giao
 ----------------------------------------------------------------------
 1/38=1/1;
 2/12=2,17=6,18=5,40=1/2;
 3/5=7,11=2,16=1,17=8,25=1,30=1,74=-13,75=-5,124=41/1,2,8,3;
 4//1;
 5/5=2,38=5/2;
 8/6=1,10=90,11=11/1;
 10/13=100,45=16/2;
 6/7=2,8=2,9=2,10=2,28=1/1;
 99/9=1/99;
 ----------------
 XantPhos_4 title
 ----------------
 Symbolic Z-matrix:
 Charge =  0 Multiplicity = 1
 P                    -1.52064   1.65027  -3.58424 
 C                    -2.07483   2.17701  -1.89508 
 C                    -3.43227   2.41112  -1.58538 
 C                    -3.82912   2.64251  -0.26269 
 C                    -2.88595   2.64957   0.77898 
 C                    -1.52138   2.4764    0.50796 
 C                    -1.15526   2.27139  -0.83489 
 O                     0.1843    2.13725  -1.13369 
 C                    -0.37905   2.52245   1.53847 
 C                    -0.88774   2.29596   2.96966 
 C                     0.30308   3.91856   1.45294 
 C                    -2.14785  -0.06861  -3.78567 
 C                    -3.29092  -0.56265  -3.13116 
 C                    -3.77281  -1.84245  -3.43285 
 C                    -3.1221   -2.63481  -4.38974 
 C                    -1.98027  -2.14874  -5.04171 
 C                    -1.49052  -0.87296  -4.7368 
 C                    -2.68258   2.58852  -4.66031 
 C                    -2.87811   3.96699  -4.43429 
 C                    -4.44907   4.05275  -6.28625 
 C                    -3.76543   4.68909  -5.23924 
 C                    -4.24576   2.68727  -6.52261 
 C                    -3.36813   1.95366  -5.71186 
 H                    -4.17357   2.40877  -2.3904 
 H                    -3.22348   2.80876   1.80728 
 H                    -4.88615   2.8134   -0.037 
 H                    -1.38514   1.31737   3.07925 
 H                    -1.60104   3.08619   3.25573 
 H                     0.6849    4.11846   0.43921 
 H                    -0.42148   4.70846   1.71496 
 H                    -2.33089   4.47136  -3.63419 
 H                    -5.13679   4.62325  -6.91902 
 H                    -4.77451   2.1836   -7.33837 
 H                    -3.22439   0.88557  -5.89783 
 H                    -3.80094   0.04745  -2.38005 
 H                    -4.66065  -2.2229   -2.91673 
 H                    -3.49968  -3.63615  -4.62054 
 H                    -1.45757  -2.77014  -5.77534 
 H                    -0.58918  -0.48708  -5.22733 
 P                     1.64894   0.07554  -2.6518 
 C                     1.74515   0.36607  -0.82773 
 C                     2.39716  -0.50984   0.06535 
 C                     2.21135  -0.38213   1.44678 
 C                     1.3321    0.58187   1.96807 
 C                     0.64263   1.45382   1.11418 
 C                     0.89384   1.33093  -0.26385 
 C                     0.82027  -1.58597  -2.5835 
 C                     1.28255  -2.69204  -3.32102 
 C                     0.63253  -3.93062  -3.22203 
 C                    -0.48452  -4.07945  -2.39121 
 C                    -0.95231  -2.98066  -1.65498 
 C                    -0.30622  -1.74476  -1.74956 
 C                     3.31484  -0.34367  -3.29638 
 C                     3.40074  -0.59209  -4.68218 
 C                     5.77538  -1.0456   -4.4667 
 C                     4.62264  -0.95164  -5.26054 
 C                     5.69961  -0.76568  -3.09629 
 C                     4.47576  -0.41614  -2.50917 
 H                     3.01124  -1.32605  -0.32511 
 H                     1.17109   0.63247   3.04878 
 H                     2.72915  -1.0655    2.12663 
 H                    -0.05293   2.34756   3.68774 
 H                     1.1502    3.96644   2.15826 
 H                     2.51403  -0.46252  -5.31298 
 H                     4.44193  -0.15495  -1.44929 
 H                     2.16574  -2.59576  -3.95803 
 H                     1.01204  -4.78443  -3.79333 
 H                    -0.98965  -5.04776  -2.31423 
 H                    -1.828    -3.0839   -1.00663 
 H                    -0.67618  -0.89994  -1.15951 
 H                     6.60179  -0.80316  -2.47708 
 H                     6.73447  -1.31408  -4.92085 
 H                     4.67844  -1.13414  -6.33848 
 H                    -3.9108    5.75848  -5.05599 
 Pd                    0.772     1.94534  -3.77661 
 Cl                    3.02241   2.70175  -3.54519 
 Cl                    0.27977   3.94348  -4.93651 
 
 Stoichiometry    C39H32Cl2OP2Pd
 Framework group  C1[X(C39H32Cl2OP2Pd)]
 Deg. of freedom   225
 Full point group                 C1      NOp   1
 Largest Abelian subgroup         C1      NOp   1
 Largest concise Abelian subgroup C1      NOp   1
                         Standard orientation:                         
 ---------------------------------------------------------------------
 Center     Atomic      Atomic             Coordinates (Angstroms)
 Number     Number       Type             X           Y           Z
 ---------------------------------------------------------------------
      1         15           0       -1.785257   -0.606730   -0.086445
      2          6           0       -2.200317    1.182301    0.168364
      3          6           0       -3.430165    1.599968    0.721907
      4          6           0       -3.639447    2.944044    1.053867
      5          6           0       -2.633263    3.901388    0.839885
      6          6           0       -1.418265    3.538905    0.241670
      7          6           0       -1.251519    2.184885   -0.102064
      8          8           0       -0.081318    1.808855   -0.727309
      9          6           0       -0.259202    4.490017   -0.106093
     10          6           0       -0.334516    5.801424    0.689471
     11          6           0       -0.326613    4.810069   -1.627528
     12          6           0       -1.573779   -1.300606    1.605394
     13          6           0       -2.218551   -0.785894    2.744878
     14          6           0       -2.101785   -1.446274    3.974260
     15          6           0       -1.346430   -2.623666    4.074664
     16          6           0       -0.698593   -3.138360    2.943074
     17          6           0       -0.806089   -2.476439    1.713955
     18          6           0       -3.423703   -1.299228   -0.560023
     19          6           0       -4.187954   -0.654963   -1.555178
     20          6           0       -5.930240   -2.330934   -1.309018
     21          6           0       -5.438668   -1.166101   -1.917334
     22          6           0       -5.167117   -2.981351   -0.331090
     23          6           0       -3.918435   -2.467847    0.046881
     24          1           0       -4.219954    0.861533    0.890821
     25          1           0       -2.811601    4.941081    1.129561
     26          1           0       -4.594678    3.251064    1.490566
     27          1           0       -0.294919    5.625035    1.777759
     28          1           0       -1.265969    6.342406    0.455285
     29          1           0       -0.272797    3.892447   -2.234549
     30          1           0       -1.272090    5.328487   -1.861827
     31          1           0       -3.799122    0.239770   -2.047388
     32          1           0       -6.906232   -2.732232   -1.600927
     33          1           0       -5.543098   -3.891469    0.147507
     34          1           0       -3.334989   -2.977066    0.819121
     35          1           0       -2.805348    0.134642    2.675560
     36          1           0       -2.602689   -1.038104    4.858498
     37          1           0       -1.254578   -3.135353    5.038132
     38          1           0       -0.092384   -4.046199    3.019861
     39          1           0       -0.291294   -2.859112    0.824860
     40         15           0        1.863519   -0.321684   -0.111779
     41          6           0        2.146768    1.498762    0.051425
     42          6           0        3.280262    2.055577    0.679969
     43          6           0        3.312777    3.415810    1.008441
     44          6           0        2.200134    4.240006    0.770036
     45          6           0        1.043112    3.720681    0.173053
     46          6           0        1.065771    2.362681   -0.190946
     47          6           0        1.922973   -0.733794    1.698913
     48          6           0        2.699583   -1.791363    2.208264
     49          6           0        2.724675   -2.051616    3.585962
     50          6           0        1.975516   -1.264522    4.468824
     51          6           0        1.197243   -0.210188    3.967941
     52          6           0        1.170792    0.053585    2.595517
     53          6           0        3.385277   -1.126231   -0.746915
     54          6           0        3.320901   -2.523785   -0.926511
     55          6           0        5.631158   -2.547524   -1.670255
     56          6           0        4.441779   -3.230268   -1.375203
     57          6           0        5.686982   -1.155370   -1.525732
     58          6           0        4.570636   -0.443535   -1.065561
     59          1           0        4.118459    1.411106    0.958962
     60          1           0        2.234732    5.289643    1.075820
     61          1           0        4.201931    3.833793    1.490112
     62          1           0        0.497833    6.468684    0.411691
     63          1           0        0.515812    5.463581   -1.911468
     64          1           0        2.375885   -3.050603   -0.752263
     65          1           0        4.614696    0.645909   -1.003265
     66          1           0        3.305403   -2.401320    1.532985
     67          1           0        3.343470   -2.870733    3.967449
     68          1           0        1.997702   -1.468487    5.544289
     69          1           0        0.603216    0.408142    4.648127
     70          1           0        0.567859    0.887430    2.221449
     71          1           0        6.600830   -0.611970   -1.787195
     72          1           0        6.504583   -3.098033   -2.033929
     73          1           0        4.377186   -4.313639   -1.518389
     74          1           0       -6.024627   -0.659016   -2.690525
     75         46           0        0.033894   -0.786262   -1.514289
     76         17           0        1.681117   -0.419869   -3.200247
     77         17           0       -1.527345   -1.259511   -3.222726
 ---------------------------------------------------------------------
 Rotational constants (GHZ):      0.0761712      0.0616742      0.0556324
 General basis read from cards:  (5D, 7F)
 ======================================================================================================
                                       Pseudopotential Parameters
 ======================================================================================================
  Center     Atomic      Valence      Angular      Power
  Number     Number     Electrons     Momentum     of R      Exponent        Coefficient   SO-Coeffient
 ======================================================================================================
    1         15
                                   No pseudopotential on this center.
    2          6
                                   No pseudopotential on this center.
    3          6
                                   No pseudopotential on this center.
    4          6
                                   No pseudopotential on this center.
    5          6
                                   No pseudopotential on this center.
    6          6
                                   No pseudopotential on this center.
    7          6
                                   No pseudopotential on this center.
    8          8
                                   No pseudopotential on this center.
    9          6
                                   No pseudopotential on this center.
   10          6
                                   No pseudopotential on this center.
   11          6
                                   No pseudopotential on this center.
   12          6
                                   No pseudopotential on this center.
   13          6
                                   No pseudopotential on this center.
   14          6
                                   No pseudopotential on this center.
   15          6
                                   No pseudopotential on this center.
   16          6
                                   No pseudopotential on this center.
   17          6
                                   No pseudopotential on this center.
   18          6
                                   No pseudopotential on this center.
   19          6
                                   No pseudopotential on this center.
   20          6
                                   No pseudopotential on this center.
   21          6
                                   No pseudopotential on this center.
   22          6
                                   No pseudopotential on this center.
   23          6
                                   No pseudopotential on this center.
   24          1
                                   No pseudopotential on this center.
   25          1
                                   No pseudopotential on this center.
   26          1
                                   No pseudopotential on this center.
   27          1
                                   No pseudopotential on this center.
   28          1
                                   No pseudopotential on this center.
   29          1
                                   No pseudopotential on this center.
   30          1
                                   No pseudopotential on this center.
   31          1
                                   No pseudopotential on this center.
   32          1
                                   No pseudopotential on this center.
   33          1
                                   No pseudopotential on this center.
   34          1
                                   No pseudopotential on this center.
   35          1
                                   No pseudopotential on this center.
   36          1
                                   No pseudopotential on this center.
   37          1
                                   No pseudopotential on this center.
   38          1
                                   No pseudopotential on this center.
   39          1
                                   No pseudopotential on this center.
   40         15
                                   No pseudopotential on this center.
   41          6
                                   No pseudopotential on this center.
   42          6
                                   No pseudopotential on this center.
   43          6
                                   No pseudopotential on this center.
   44          6
                                   No pseudopotential on this center.
   45          6
                                   No pseudopotential on this center.
   46          6
                                   No pseudopotential on this center.
   47          6
                                   No pseudopotential on this center.
   48          6
                                   No pseudopotential on this center.
   49          6
                                   No pseudopotential on this center.
   50          6
                                   No pseudopotential on this center.
   51          6
                                   No pseudopotential on this center.
   52          6
                                   No pseudopotential on this center.
   53          6
                                   No pseudopotential on this center.
   54          6
                                   No pseudopotential on this center.
   55          6
                                   No pseudopotential on this center.
   56          6
                                   No pseudopotential on this center.
   57          6
                                   No pseudopotential on this center.
   58          6
                                   No pseudopotential on this center.
   59          1
                                   No pseudopotential on this center.
   60          1
                                   No pseudopotential on this center.
   61          1
                                   No pseudopotential on this center.
   62          1
                                   No pseudopotential on this center.
   63          1
                                   No pseudopotential on this center.
   64          1
                                   No pseudopotential on this center.
   65          1
                                   No pseudopotential on this center.
   66          1
                                   No pseudopotential on this center.
   67          1
                                   No pseudopotential on this center.
   68          1
                                   No pseudopotential on this center.
   69          1
                                   No pseudopotential on this center.
   70          1
                                   No pseudopotential on this center.
   71          1
                                   No pseudopotential on this center.
   72          1
                                   No pseudopotential on this center.
   73          1
                                   No pseudopotential on this center.
   74          1
                                   No pseudopotential on this center.
   75         46           18
                                      G and up 
                                                     2        1.0000000        0.00000000    0.00000000
                                      S - G
                                                     2       12.4300000      240.22904000    0.00000000
                                                     2        6.1707590       35.17194300    0.00000000
                                      P - G
                                                     2       11.0800000      170.41727600    0.00000000
                                                     2        5.8295540       28.47213300    0.00000000
                                      D - G
                                                     2        9.5100000       69.01384500    0.00000000
                                                     2        4.1397810       11.75086200    0.00000000
                                      F - G
                                                     2       13.2700000      -31.92955400    0.00000000
                                                     2        6.6300000       -5.39821700    0.00000000
   76         17
                                   No pseudopotential on this center.
   77         17
                                   No pseudopotential on this center.
 ======================================================================================================
 There are  1839 symmetry adapted cartesian basis functions of A   symmetry.
 There are  1616 symmetry adapted basis functions of A   symmetry.
  1616 basis functions,  2637 primitive gaussians,  1839 cartesian basis functions
   178 alpha electrons      178 beta electrons
       nuclear repulsion energy      7157.7451002139 Hartrees.
 NAtoms=   77 NActive=   77 NUniq=   77 SFac= 1.00D+00 NAtFMM=   60 NAOKFM=T Big=T
 Integral buffers will be    131072 words long.
 Raffenetti 2 integral format.
 Two-electron integral symmetry is turned on.
 Nuclear repulsion after empirical dispersion term =     7157.5975132328 Hartrees.
 One-electron integrals computed using PRISM.
   1 Symmetry operations used in ECPInt.
 ECPInt:  NShTT=  201295 NPrTT=  630012 LenC2=  160419 LenP2D=  331291.
 LDataN:  DoStor=T MaxTD1= 7 Len=  274
 NBasis=  1616 RedAO= T EigKep=  3.71D-06  NBF=  1616
 NBsUse=  1616 1.00D-06 EigRej= -1.00D+00 NBFU=  1616
 Defaulting to unpruned grid for atomic number  46.
 ExpMin= 1.60D-02 ExpMax= 6.95D+04 ExpMxC= 2.37D+03 IAcc=3 IRadAn=         5 AccDes= 0.00D+00
 Harris functional with IExCor= 1009 and IRadAn=       5 diagonalized for initial guess.
 HarFok:  IExCor= 1009 AccDes= 0.00D+00 IRadAn=         5 IDoV= 1 UseB2=F ITyADJ=14
 ICtDFT=  3500011 ScaDFX=  1.000000  1.000000  1.000000  1.000000
 Defaulting to unpruned grid for atomic number  46.
 Defaulting to unpruned grid for atomic number  46.
 Defaulting to unpruned grid for atomic number  46.
 Defaulting to unpruned grid for atomic number  46.
 Defaulting to unpruned grid for atomic number  46.
 Defaulting to unpruned grid for atomic number  46.
 Defaulting to unpruned grid for atomic number  46.
 Defaulting to unpruned grid for atomic number  46.
 Defaulting to unpruned grid for atomic number  46.
 Defaulting to unpruned grid for atomic number  46.
 Defaulting to unpruned grid for atomic number  46.
 Defaulting to unpruned grid for atomic number  46.
 Defaulting to unpruned grid for atomic number  46.
 Defaulting to unpruned grid for atomic number  46.
 FoFCou: FMM=F IPFlag=           0 FMFlag=      100000 FMFlg1=        2001
         NFxFlg=           0 DoJE=T BraDBF=F KetDBF=T FulRan=T
         wScrn=  0.000000 ICntrl=     500 IOpCl=  0 I1Cent=   200000004 NGrid=           0
         NMat0=    1 NMatS0=      1 NMatT0=    0 NMatD0=    1 NMtDS0=    0 NMtDT0=    0
 Petite list used in FoFCou.
 Requested convergence on RMS density matrix=1.00D-08 within 128 cycles.
 Requested convergence on MAX density matrix=1.00D-06.
 Requested convergence on             energy=1.00D-06.
 No special actions if energy rises.
 Defaulting to unpruned grid for atomic number  46.
 Defaulting to unpruned grid for atomic number  46.
 Defaulting to unpruned grid for atomic number  46.
 Defaulting to unpruned grid for atomic number  46.
 Defaulting to unpruned grid for atomic number  46.
 Defaulting to unpruned grid for atomic number  46.
 Defaulting to unpruned grid for atomic number  46.
 Defaulting to unpruned grid for atomic number  46.
 Defaulting to unpruned grid for atomic number  46.
 Defaulting to unpruned grid for atomic number  46.
 Defaulting to unpruned grid for atomic number  46.
 Defaulting to unpruned grid for atomic number  46.
 Defaulting to unpruned grid for atomic number  46.
 Defaulting to unpruned grid for atomic number  46.
 EnCoef did     2 forward-backward iterations
 Rare condition: small coef for last iteration:  0.222D-15
 EnCoef did    13 forward-backward iterations
 EnCoef did     2 forward-backward iterations
 Restarting incremental Fock formation.
 SCF Done:  E(RPBE1PBE) =  -3310.05696362     A.U. after   24 cycles
            NFock= 24  Conv=0.74D-08     -V/T= 2.0287
 DoSCS=F DFT=T ScalE2(SS,OS)=  1.000000  1.000000
 Range of M.O.s used for correlation:     1  1616
 NBasis=  1616 NAE=   178 NBE=   178 NFC=     0 NFV=     0
 NROrb=   1616 NOA=   178 NOB=   178 NVA=  1438 NVB=  1438

 **** Warning!!: The largest alpha MO coefficient is  0.46147010D+02

          Differentiating once with respect to magnetic field using GIAOs.
          Electric field/nuclear overlap derivatives assumed to be zero.
 Defaulting to unpruned grid for atomic number  46.
 FoFCou: FMM=F IPFlag=           0 FMFlag=      100000 FMFlg1=        2001
         NFxFlg=           0 DoJE=F BraDBF=F KetDBF=T FulRan=T
         wScrn=  0.000000 ICntrl=    6100 IOpCl=  0 I1Cent=           7 NGrid=          77
         NMat0=    1 NMatS0=      1 NMatT0=    0 NMatD0=    1 NMtDS0=    0 NMtDT0=    0
 Symmetry not used in FoFCou.
   1 Symmetry operations used in ECPInt.
 ECPInt:  NShTT=  201295 NPrTT=  630012 LenC2=  201296 LenP2D=  630012.
 LDataN:  DoStor=T MaxTD1= 8 Len=  415
 FoFJK:  IHMeth= 1 ICntrl=    6127 DoSepK=F KAlg= 0 I1Cent=   0 FoldK=F
 IRaf=         1 NMat=   1 IRICut=       1 DoRegI=T DoRafI=F ISym2E= 0.
 Defaulting to unpruned grid for atomic number  46.
 Defaulting to unpruned grid for atomic number  46.
 Defaulting to unpruned grid for atomic number  46.
 Defaulting to unpruned grid for atomic number  46.
 Defaulting to unpruned grid for atomic number  46.
 Defaulting to unpruned grid for atomic number  46.
 Defaulting to unpruned grid for atomic number  46.
 Defaulting to unpruned grid for atomic number  46.
 Defaulting to unpruned grid for atomic number  46.
 Defaulting to unpruned grid for atomic number  46.
 Defaulting to unpruned grid for atomic number  46.
 Defaulting to unpruned grid for atomic number  46.
 Defaulting to unpruned grid for atomic number  46.
 Defaulting to unpruned grid for atomic number  46.
          There are     3 degrees of freedom in the 1st order CPHF.  IDoFFX=0 NUNeed=     3.
      3 vectors produced by pass  0 Test12= 8.53D-12 3.33D-08 XBig12= 2.51D+02 1.96D+00.
 AX will form     3 AO Fock derivatives at one time.
      3 vectors produced by pass  1 Test12= 8.53D-12 3.33D-08 XBig12= 1.27D+00 1.83D-01.
      3 vectors produced by pass  2 Test12= 8.53D-12 3.33D-08 XBig12= 9.87D-03 4.70D-02.
      3 vectors produced by pass  3 Test12= 8.53D-12 3.33D-08 XBig12= 3.08D-04 9.37D-03.
      3 vectors produced by pass  4 Test12= 8.53D-12 3.33D-08 XBig12= 2.03D-06 3.35D-04.
      3 vectors produced by pass  5 Test12= 8.53D-12 3.33D-08 XBig12= 1.40D-08 5.51D-05.
      3 vectors produced by pass  6 Test12= 8.53D-12 3.33D-08 XBig12= 1.87D-10 4.88D-06.
      3 vectors produced by pass  7 Test12= 8.53D-12 3.33D-08 XBig12= 1.77D-12 3.76D-07.
 InvSVY:  IOpt=1 It=  1 EMax= 6.09D-16
 Solved reduced A of dimension    24 with     3 vectors.
 Calculating GIAO nuclear magnetic shielding tensors.
 SCF GIAO Magnetic shielding tensor (ppm):
      1  P    Isotropic =   242.5375   Anisotropy =   108.9000
   XX=   276.2837   YX=   -13.7962   ZX=   -32.4210
   XY=    -0.2693   YY=   177.0667   ZY=    35.4956
   XZ=   -41.8496   YZ=     5.3321   ZZ=   274.2623
   Eigenvalues:   172.9511   239.5239   315.1376
      2  C    Isotropic =    54.9069   Anisotropy =   148.0574
   XX=    47.5681   YX=     5.3376   ZX=    43.5664
   XY=    -2.3310   YY=   -10.6642   ZY=   -16.1963
   XZ=    57.4875   YZ=   -18.8553   ZZ=   127.8168
   Eigenvalues:   -14.1949    25.3038   153.6118
      3  C    Isotropic =    44.1563   Anisotropy =   187.8768
   XX=   -10.2222   YX=   -41.8567   ZX=    60.8811
   XY=   -48.3712   YY=    -5.0769   ZY=   -10.9405
   XZ=    55.2695   YZ=    -3.1171   ZZ=   147.7680
   Eigenvalues:   -60.2984    23.3597   169.4075
      4  C    Isotropic =    57.3111   Anisotropy =   174.5521
   XX=    -8.0864   YX=    13.2886   ZX=    75.5618
   XY=    15.0385   YY=    45.6824   ZY=   -31.0516
   XZ=    82.4324   YZ=   -31.6824   ZZ=   134.3372
   Eigenvalues:   -50.2838    48.5378   173.6791
      5  C    Isotropic =    51.9822   Anisotropy =   181.6148
   XX=    54.6420   YX=     0.3683   ZX=    50.4938
   XY=     3.4165   YY=   -38.0238   ZY=   -44.7980
   XZ=    60.3262   YZ=   -38.1336   ZZ=   139.3285
   Eigenvalues:   -49.3896    32.2776   173.0588
      6  C    Isotropic =    40.7911   Anisotropy =   170.6623
   XX=     5.7946   YX=   -26.9083   ZX=    59.0830
   XY=   -27.2398   YY=   -13.5035   ZY=   -27.6658
   XZ=    52.5380   YZ=    -0.1300   ZZ=   130.0824
   Eigenvalues:   -36.2266     4.0340   154.5660
      7  C    Isotropic =    19.0574   Anisotropy =   131.5859
   XX=   -34.8511   YX=    15.2774   ZX=    66.1043
   XY=    16.9116   YY=    17.6692   ZY=   -23.4915
   XZ=    66.6665   YZ=   -12.9933   ZZ=    74.3542
   Eigenvalues:   -71.8163    22.2072   106.7814
      8  O    Isotropic =   143.9404   Anisotropy =   200.6683
   XX=    73.7547   YX=    -5.5153   ZX=     3.1565
   XY=    -5.8111   YY=    93.2012   ZY=   -51.3694
   XZ=    19.1575   YZ=   -43.0319   ZZ=   264.8654
   Eigenvalues:    72.1991    81.9029   277.7193
      9  C    Isotropic =   142.6252   Anisotropy =     7.9529
   XX=   142.1999   YX=     1.3672   ZX=     0.2069
   XY=     0.3920   YY=   137.7844   ZY=    -5.1778
   XZ=    -0.7901   YZ=     4.3505   ZZ=   147.8913
   Eigenvalues:   137.6036   142.3449   147.9272
     10  C    Isotropic =   162.5223   Anisotropy =    29.8173
   XX=   147.4153   YX=    -0.8476   ZX=    -1.0520
   XY=    -0.9477   YY=   167.5448   ZY=    15.4336
   XZ=    -0.1535   YZ=     8.6280   ZZ=   172.6068
   Eigenvalues:   147.3751   157.7914   182.4005
     11  C    Isotropic =   154.8651   Anisotropy =    42.6597
   XX=   145.4060   YX=    -0.6342   ZX=     1.4397
   XY=    -0.7074   YY=   141.3847   ZY=   -10.6480
   XZ=     2.4137   YZ=   -19.3773   ZZ=   177.8046
   Eigenvalues:   135.9941   145.2962   183.3049
     12  C    Isotropic =    49.6209   Anisotropy =   187.1949
   XX=   124.1526   YX=    65.4021   ZX=    20.8385
   XY=    73.7758   YY=    52.7679   ZY=    51.0434
   XZ=    15.8219   YZ=    38.9855   ZZ=   -28.0577
   Eigenvalues:   -49.1601    23.6054   174.4175
     13  C    Isotropic =    48.0988   Anisotropy =   197.6343
   XX=   101.9766   YX=   111.6002   ZX=    16.8945
   XY=   107.9804   YY=    10.8045   ZY=    14.6838
   XZ=    24.1353   YZ=    17.8054   ZZ=    31.5152
   Eigenvalues:   -62.5368    26.9782   179.8550
     14  C    Isotropic =    51.9596   Anisotropy =   188.5436
   XX=   108.7710   YX=    80.4481   ZX=    60.2873
   XY=    79.1484   YY=    64.5369   ZY=   -14.7593
   XZ=    60.3235   YZ=   -16.4779   ZZ=   -17.4291
   Eigenvalues:   -60.8796    39.1031   177.6553
     15  C    Isotropic =    48.2681   Anisotropy =   197.6361
   XX=   130.0243   YX=    67.6357   ZX=    19.3333
   XY=    73.1662   YY=    49.6533   ZY=    55.2597
   XZ=    18.5172   YZ=    52.5872   ZZ=   -34.8733
   Eigenvalues:   -62.3479    27.1266   180.0255
     16  C    Isotropic =    50.8667   Anisotropy =   194.7358
   XX=   102.1218   YX=   108.1112   ZX=    19.6666
   XY=   108.1353   YY=    13.3605   ZY=    22.1325
   XZ=    21.0322   YZ=    23.1203   ZZ=    37.1178
   Eigenvalues:   -59.7336    31.6432   180.6906
     17  C    Isotropic =    38.8739   Anisotropy =   199.6307
   XX=    92.1922   YX=    94.8214   ZX=    57.5636
   XY=    80.9757   YY=    59.5855   ZY=   -18.3161
   XZ=    57.6838   YZ=    -7.3219   ZZ=   -35.1560
   Eigenvalues:   -75.6588    20.3194   171.9610
     18  C    Isotropic =    44.5766   Anisotropy =   173.3708
   XX=    -1.3203   YX=   -67.3203   ZX=   -57.6215
   XY=   -54.3922   YY=    51.9432   ZY=    46.0471
   XZ=   -60.5512   YZ=    46.9233   ZZ=    83.1068
   Eigenvalues:   -47.2593    20.8319   160.1571
     19  C    Isotropic =    38.8289   Anisotropy =   203.5493
   XX=    35.8391   YX=   -59.6588   ZX=   -41.9786
   XY=   -56.2358   YY=     5.3959   ZY=    93.9467
   XZ=   -29.4925   YZ=   104.6895   ZZ=    75.2515
   Eigenvalues:   -72.7803    14.7385   174.5284
     20  C    Isotropic =    50.0657   Anisotropy =   189.3827
   XX=    -9.9135   YX=   -64.5031   ZX=   -64.6537
   XY=   -68.0546   YY=    62.3527   ZY=    47.0281
   XZ=   -70.4934   YZ=    44.6536   ZZ=    97.7580
   Eigenvalues:   -59.0694    32.9457   176.3209
     21  C    Isotropic =    54.5037   Anisotropy =   182.1111
   XX=    40.5170   YX=    -9.4741   ZX=   -76.3462
   XY=   -11.2151   YY=    64.7817   ZY=    80.9763
   XZ=   -78.6692   YZ=    87.0800   ZZ=    58.2124
   Eigenvalues:   -53.9272    41.5271   175.9111
     22  C    Isotropic =    53.8866   Anisotropy =   181.3121
   XX=    56.7088   YX=   -59.0116   ZX=   -26.2959
   XY=   -60.2882   YY=    11.9298   ZY=    90.3737
   XZ=   -26.1455   YZ=    83.8615   ZZ=    93.0214
   Eigenvalues:   -56.8202    43.7188   174.7614
     23  C    Isotropic =    45.8332   Anisotropy =   194.9860
   XX=    30.1973   YX=   -16.9699   ZX=   -77.3759
   XY=    -5.6266   YY=    54.3442   ZY=    93.4622
   XZ=   -73.8837   YZ=    95.6107   ZZ=    52.9582
   Eigenvalues:   -67.0716    28.7474   175.8239
     24  H    Isotropic =    23.9065   Anisotropy =    11.4476
   XX=    23.9424   YX=    -6.2175   ZX=    -2.5477
   XY=    -2.1811   YY=    26.2812   ZY=     4.4405
   XZ=    -0.1445   YZ=     4.8004   ZZ=    21.4960
   Eigenvalues:    18.4062    21.7752    31.5383
     25  H    Isotropic =    23.4934   Anisotropy =     9.1429
   XX=    27.8361   YX=     1.2190   ZX=    -3.2333
   XY=     2.4025   YY=    22.9172   ZY=    -0.3047
   XZ=    -4.1259   YZ=     1.5032   ZZ=    19.7269
   Eigenvalues:    17.9959    22.8956    29.5887
     26  H    Isotropic =    23.8907   Anisotropy =     5.5642
   XX=    24.1217   YX=    -0.1984   ZX=    -1.6965
   XY=     0.6747   YY=    27.3919   ZY=     1.0831
   XZ=    -1.2550   YZ=     1.4063   ZZ=    20.1584
   Eigenvalues:    19.4699    24.6020    27.6002
     27  H    Isotropic =    29.9190   Anisotropy =     9.4729
   XX=    27.2402   YX=     0.2814   ZX=    -0.2101
   XY=    -0.1645   YY=    28.4027   ZY=     2.8718
   XZ=    -0.1038   YZ=     5.2744   ZZ=    34.1141
   Eigenvalues:    26.2680    27.2547    36.2342
     28  H    Isotropic =    29.2479   Anisotropy =     9.4288
   XX=    30.7345   YX=    -3.2644   ZX=    -0.6541
   XY=    -3.8290   YY=    32.6909   ZY=     1.0119
   XZ=    -0.5089   YZ=     1.2726   ZZ=    24.3182
   Eigenvalues:    24.1630    28.0469    35.5337
     29  H    Isotropic =    28.9783   Anisotropy =     6.0365
   XX=    21.8871   YX=    -0.8797   ZX=     0.0075
   XY=    -0.9934   YY=    32.5995   ZY=     0.2779
   XZ=     0.2345   YZ=     0.5893   ZZ=    32.4482
   Eigenvalues:    21.8034    32.1288    33.0026
     30  H    Isotropic =    30.1310   Anisotropy =     9.8548
   XX=    29.5570   YX=    -3.4967   ZX=     2.5495
   XY=    -2.9199   YY=    30.3208   ZY=    -2.1942
   XZ=     3.6482   YZ=    -4.8027   ZZ=    30.5151
   Eigenvalues:    26.7079    26.9842    36.7009
     31  H    Isotropic =    23.1929   Anisotropy =    12.0965
   XX=    28.9312   YX=    -0.9829   ZX=     5.0521
   XY=    -1.8171   YY=    18.3958   ZY=     1.1387
   XZ=     4.0865   YZ=     3.1701   ZZ=    22.2519
   Eigenvalues:    16.4928    21.8287    31.2572
     32  H    Isotropic =    23.8807   Anisotropy =     3.4104
   XX=    24.3605   YX=     1.0024   ZX=     1.7325
   XY=     0.9822   YY=    24.1905   ZY=    -2.3458
   XZ=     1.2060   YZ=    -2.5240   ZZ=    23.0912
   Eigenvalues:    20.3628    25.1251    26.1543
     33  H    Isotropic =    24.1659   Anisotropy =     7.5315
   XX=    27.2274   YX=     2.0592   ZX=     3.3250
   XY=     2.3619   YY=    22.6622   ZY=    -0.3927
   XZ=     2.7762   YZ=    -1.0582   ZZ=    22.6082
   Eigenvalues:    19.9699    23.3409    29.1869
     34  H    Isotropic =    24.9992   Anisotropy =    15.7352
   XX=    29.2995   YX=     7.2621   ZX=     5.0093
   XY=     7.8608   YY=    24.6324   ZY=     2.4215
   XZ=     1.3157   YZ=    -1.0380   ZZ=    21.0657
   Eigenvalues:    18.2800    21.2282    35.4893
     35  H    Isotropic =    24.1374   Anisotropy =    12.4429
   XX=    20.1582   YX=    -2.9766   ZX=    -1.2420
   XY=     0.5205   YY=    21.3327   ZY=    -1.9629
   XZ=    -3.1801   YZ=    -5.4703   ZZ=    30.9214
   Eigenvalues:    18.1289    21.8507    32.4327
     36  H    Isotropic =    24.1706   Anisotropy =     6.1510
   XX=    22.7857   YX=    -2.1710   ZX=    -0.8830
   XY=    -0.9519   YY=    23.6859   ZY=    -2.7035
   XZ=    -0.4530   YZ=    -3.6440   ZZ=    26.0402
   Eigenvalues:    20.3399    23.9006    28.2713
     37  H    Isotropic =    24.1845   Anisotropy =     3.3015
   XX=    23.9454   YX=    -1.2391   ZX=    -2.8502
   XY=    -0.8259   YY=    24.4840   ZY=    -0.6890
   XZ=    -1.7884   YZ=    -0.6966   ZZ=    24.1241
   Eigenvalues:    21.2491    24.9190    26.3855
     38  H    Isotropic =    24.6112   Anisotropy =     5.9271
   XX=    22.5927   YX=     2.2947   ZX=    -1.1553
   XY=     1.2013   YY=    25.0297   ZY=    -2.0451
   XZ=    -1.4354   YZ=    -2.1981   ZZ=    26.2112
   Eigenvalues:    21.6714    23.5996    28.5626
     39  H    Isotropic =    23.2485   Anisotropy =     9.6761
   XX=    22.7997   YX=    -0.6523   ZX=     3.1060
   XY=     0.2423   YY=    25.3701   ZY=    -3.9096
   XZ=     0.7692   YZ=    -7.4236   ZZ=    21.5758
   Eigenvalues:    17.1167    22.9296    29.6993
     40  P    Isotropic =   258.7258   Anisotropy =    91.4502
   XX=   307.1542   YX=    13.7971   ZX=    35.8540
   XY=    34.9392   YY=   205.3915   ZY=     7.1267
   XZ=    -2.5372   YZ=    23.4388   ZZ=   263.6318
   Eigenvalues:   197.8432   258.6417   319.6927
     41  C    Isotropic =    51.6934   Anisotropy =   154.7881
   XX=    32.6962   YX=    -0.8878   ZX=   -48.8278
   XY=     6.1069   YY=   -17.3980   ZY=   -23.6431
   XZ=   -29.7330   YZ=   -15.9784   ZZ=   139.7821
   Eigenvalues:   -19.9736    20.1684   154.8855
     42  C    Isotropic =    44.3079   Anisotropy =   187.9139
   XX=     0.9207   YX=    40.1474   ZX=   -72.8521
   XY=    48.5858   YY=     1.5035   ZY=   -11.8234
   XZ=   -78.1103   YZ=    -6.0745   ZZ=   130.4995
   Eigenvalues:   -57.6642    21.0040   169.5839
     43  C    Isotropic =    56.1667   Anisotropy =   177.3723
   XX=     3.0533   YX=   -14.6953   ZX=   -77.5467
   XY=   -16.0495   YY=    42.4425   ZY=   -40.0690
   XZ=   -90.8574   YZ=   -47.4442   ZZ=   123.0043
   Eigenvalues:   -52.8802    46.9653   174.4149
     44  C    Isotropic =    53.3174   Anisotropy =   180.9007
   XX=    55.0551   YX=    15.2183   ZX=   -44.4458
   XY=    10.1397   YY=   -32.0939   ZY=   -53.1547
   XZ=   -55.5112   YZ=   -50.3162   ZZ=   136.9910
   Eigenvalues:   -46.6880    32.7224   173.9179
     45  C    Isotropic =    42.2429   Anisotropy =   170.1313
   XX=    -3.7498   YX=    31.3958   ZX=   -49.8485
   XY=    27.7880   YY=    -1.2860   ZY=   -39.7746
   XZ=   -47.7885   YZ=   -15.7332   ZZ=   131.7644
   Eigenvalues:   -34.2939     5.3588   155.6638
     46  C    Isotropic =    19.4304   Anisotropy =   133.0653
   XX=   -37.9327   YX=   -26.7092   ZX=   -56.0874
   XY=   -27.4249   YY=    12.0789   ZY=   -31.6997
   XZ=   -54.2895   YZ=   -22.5943   ZZ=    84.1451
   Eigenvalues:   -73.7048    23.8554   108.1407
     47  C    Isotropic =    40.6451   Anisotropy =   188.6681
   XX=    96.0199   YX=    82.5430   ZX=    22.1513
   XY=    71.6604   YY=    72.0539   ZY=    24.4815
   XZ=    17.0969   YZ=    23.2467   ZZ=   -46.1385
   Eigenvalues:   -50.9880     6.4995   166.4238
     48  C    Isotropic =    47.4692   Anisotropy =   195.6699
   XX=    88.5271   YX=   103.9146   ZX=    34.5718
   XY=   102.6838   YY=    55.9279   ZY=   -25.3397
   XZ=    40.3068   YZ=   -19.7501   ZZ=    -2.0473
   Eigenvalues:   -61.6068    26.0987   177.9158
     49  C    Isotropic =    53.9520   Anisotropy =   184.4281
   XX=    94.9239   YX=   103.2884   ZX=    -8.8494
   XY=   108.4970   YY=    36.7849   ZY=    33.3989
   XZ=    -9.2883   YZ=    34.1501   ZZ=    30.1471
   Eigenvalues:   -56.1898    41.1417   176.9041
     50  C    Isotropic =    51.8802   Anisotropy =   191.0023
   XX=   122.8479   YX=    68.3937   ZX=    13.9536
   XY=    72.3359   YY=    83.4152   ZY=    28.8213
   XZ=     9.8478   YZ=    26.5505   ZZ=   -50.6226
   Eigenvalues:   -56.1444    32.5699   179.2151
     51  C    Isotropic =    51.5682   Anisotropy =   194.2712
   XX=    93.8501   YX=   101.5555   ZX=    46.6344
   XY=    98.7099   YY=    60.8869   ZY=   -20.8978
   XZ=    44.5172   YZ=   -26.2344   ZZ=    -0.0324
   Eigenvalues:   -61.6373    35.2595   181.0823
     52  C    Isotropic =    44.1555   Anisotropy =   205.4654
   XX=    93.2792   YX=   115.7549   ZX=   -12.8964
   XY=   113.1386   YY=    30.2701   ZY=    25.9520
   XZ=     2.4202   YZ=    22.6023   ZZ=     8.9172
   Eigenvalues:   -63.9146    15.2487   181.1324
     53  C    Isotropic =    44.9719   Anisotropy =   186.6810
   XX=   -12.0395   YX=    24.5659   ZX=    69.8120
   XY=    25.2846   YY=     1.1189   ZY=   -35.7844
   XZ=    55.5485   YZ=   -17.1972   ZZ=   145.8362
   Eigenvalues:   -53.4316    18.9213   169.4259
     54  C    Isotropic =    42.1317   Anisotropy =   190.8584
   XX=   -26.7082   YX=   -47.4989   ZX=    52.0648
   XY=   -49.8564   YY=     4.0844   ZY=   -10.1863
   XZ=    51.9081   YZ=   -27.4468   ZZ=   149.0189
   Eigenvalues:   -67.1994    24.2239   169.3707
     55  C    Isotropic =    50.7667   Anisotropy =   188.4860
   XX=    -9.3268   YX=    29.9418   ZX=    66.2194
   XY=    32.2731   YY=    13.3104   ZY=   -31.6744
   XZ=    71.6446   YZ=   -31.3645   ZZ=   148.3164
   Eigenvalues:   -58.2737    34.1497   176.4240
     56  C    Isotropic =    51.9059   Anisotropy =   185.5747
   XX=    51.5593   YX=   -13.3862   ZX=    38.0439
   XY=   -11.8991   YY=   -53.7620   ZY=   -29.3252
   XZ=    40.0164   YZ=   -33.0616   ZZ=   157.9204
   Eigenvalues:   -58.7309    38.8262   175.6223
     57  C    Isotropic =    52.3284   Anisotropy =   184.2310
   XX=   -14.2629   YX=   -46.3073   ZX=    60.2304
   XY=   -44.1110   YY=    18.7467   ZY=    -2.7274
   XZ=    64.5939   YZ=    -2.3077   ZZ=   152.5014
   Eigenvalues:   -58.3787    40.2148   175.1491
     58  C    Isotropic =    48.0746   Anisotropy =   191.2939
   XX=    43.4267   YX=    -9.6016   ZX=    45.4022
   XY=   -13.6545   YY=   -58.4529   ZY=   -19.8559
   XZ=    41.4886   YZ=   -16.4668   ZZ=   159.2499
   Eigenvalues:   -60.6299    29.2499   175.6039
     59  H    Isotropic =    23.8761   Anisotropy =    10.9093
   XX=    24.8992   YX=     4.3758   ZX=    -1.0731
   XY=     3.8991   YY=    26.5948   ZY=     1.9240
   XZ=     2.7281   YZ=     5.8783   ZZ=    20.1342
   Eigenvalues:    18.1016    22.3777    31.1489
     60  H    Isotropic =    23.6872   Anisotropy =     8.9569
   XX=    28.5905   YX=     0.1748   ZX=     2.6018
   XY=    -1.6821   YY=    22.9483   ZY=    -0.0027
   XZ=     3.8855   YZ=     1.9270   ZZ=    19.5229
   Eigenvalues:    18.2042    23.1990    29.6585
     61  H    Isotropic =    24.1009   Anisotropy =     5.3500
   XX=    25.0878   YX=     0.1562   ZX=     0.6394
   XY=    -0.6999   YY=    27.4684   ZY=     0.7952
   XZ=     1.1735   YZ=     1.6728   ZZ=    19.7464
   Eigenvalues:    19.3994    25.2356    27.6675
     62  H    Isotropic =    29.2840   Anisotropy =     9.6037
   XX=    29.7705   YX=     3.2518   ZX=    -0.0337
   XY=     3.3526   YY=    33.7572   ZY=     0.8294
   XZ=     0.1692   YZ=     1.0728   ZZ=    24.3244
   Eigenvalues:    24.2141    27.9515    35.6865
     63  H    Isotropic =    30.1054   Anisotropy =    10.0025
   XX=    28.3162   YX=     3.0247   ZX=    -2.5051
   XY=     2.3513   YY=    31.2143   ZY=    -2.7326
   XZ=    -2.7690   YZ=    -5.4514   ZZ=    30.7856
   Eigenvalues:    26.6282    26.9142    36.7737
     64  H    Isotropic =    22.8633   Anisotropy =    12.3852
   XX=    22.3795   YX=    -6.0813   ZX=    -0.1526
   XY=    -5.7354   YY=    26.7423   ZY=     1.4411
   XZ=    -0.7693   YZ=     2.1610   ZZ=    19.4679
   Eigenvalues:    17.9357    19.5340    31.1201
     65  H    Isotropic =    23.0038   Anisotropy =    12.5024
   XX=    29.8172   YX=    -1.2467   ZX=    -4.0445
   XY=    -0.2633   YY=    20.3235   ZY=     1.2237
   XZ=    -3.9907   YZ=     3.6853   ZZ=    18.8707
   Eigenvalues:    16.3915    21.2812    31.3388
     66  H    Isotropic =    23.8651   Anisotropy =    13.2366
   XX=    20.2978   YX=    -3.4140   ZX=     1.6977
   XY=    -1.4496   YY=    20.6122   ZY=    -4.0065
   XZ=    -1.5912   YZ=    -5.6154   ZZ=    30.6853
   Eigenvalues:    17.0927    21.8132    32.6895
     67  H    Isotropic =    24.3522   Anisotropy =     5.7459
   XX=    23.4436   YX=    -2.6383   ZX=    -0.0343
   XY=    -1.2341   YY=    21.5021   ZY=    -0.1900
   XZ=    -0.6298   YZ=    -1.1519   ZZ=    28.1109
   Eigenvalues:    20.2364    24.6374    28.1828
     68  H    Isotropic =    24.5901   Anisotropy =     3.9400
   XX=    24.6908   YX=    -2.8757   ZX=     1.9399
   XY=    -2.0600   YY=    23.8014   ZY=     0.7584
   XZ=     0.5251   YZ=    -0.6680   ZZ=    25.2782
   Eigenvalues:    21.5478    25.0059    27.2168
     69  H    Isotropic =    25.5571   Anisotropy =     7.1187
   XX=    23.3014   YX=     1.2866   ZX=     3.3402
   XY=     0.1592   YY=    24.4769   ZY=    -0.7712
   XZ=     2.1862   YZ=    -2.5101   ZZ=    28.8929
   Eigenvalues:    21.5566    24.8118    30.3028
     70  H    Isotropic =    26.2901   Anisotropy =     9.0022
   XX=    23.6039   YX=     4.3473   ZX=    -2.2184
   XY=     1.7643   YY=    24.3221   ZY=    -0.6308
   XZ=    -1.8148   YZ=    -2.8745   ZZ=    30.9443
   Eigenvalues:    20.8731    25.7057    32.2916
     71  H    Isotropic =    23.6931   Anisotropy =     6.3092
   XX=    25.4065   YX=    -2.1833   ZX=    -2.0443
   XY=    -1.4942   YY=    25.2360   ZY=     0.9077
   XZ=    -2.0298   YZ=     1.5923   ZZ=    20.4367
   Eigenvalues:    19.6446    23.5354    27.8992
     72  H    Isotropic =    23.6519   Anisotropy =     3.7324
   XX=    24.9909   YX=     0.6013   ZX=    -1.4873
   XY=     0.8940   YY=    25.5556   ZY=     0.0182
   XZ=    -0.9495   YZ=     0.2468   ZZ=    20.4093
   Eigenvalues:    20.0876    24.7280    26.1402
     73  H    Isotropic =    23.4686   Anisotropy =     6.7948
   XX=    26.5641   YX=    -1.6607   ZX=    -2.2722
   XY=    -1.8031   YY=    23.2956   ZY=     0.4116
   XZ=    -2.2223   YZ=     0.5701   ZZ=    20.5460
   Eigenvalues:    19.7973    22.6100    27.9984
     74  H    Isotropic =    23.8471   Anisotropy =     6.9055
   XX=    26.6697   YX=     2.8477   ZX=     1.6335
   XY=     2.7301   YY=    23.3623   ZY=    -0.8848
   XZ=     1.6747   YZ=    -0.3459   ZZ=    21.5092
   Eigenvalues:    20.1921    22.8984    28.4508
     75  Pd   Isotropic =  -206.9061   Anisotropy =   279.9215
   XX=   -40.7814   YX=    73.9741   ZX=    17.2397
   XY=    79.9264   YY=  -499.3922   ZY=    69.8523
   XZ=     0.6772   YZ=    69.8368   ZZ=   -80.5446
   Eigenvalues:  -522.2888   -78.1376   -20.2918
     76  Cl   Isotropic =   861.5523   Anisotropy =   513.4564
   XX=   687.2336   YX=  -137.8737   ZX=  -159.0984
   XY=  -185.4274   YY=  1104.3459   ZY=  -172.1607
   XZ=     3.3683   YZ=  -156.0335   ZZ=   793.0774
   Eigenvalues:   555.2897   825.5107  1203.8565
     77  Cl   Isotropic =   850.3569   Anisotropy =   243.1770
   XX=   708.1157   YX=    42.1941   ZX=    99.4660
   XY=   -46.9220   YY=   999.3904   ZY=   -51.5386
   XZ=    98.4810   YZ=   -31.4575   ZZ=   843.5645
   Eigenvalues:   655.0325   883.5632  1012.4749
 End of Minotr F.D. properties file   721 does not exist.
 End of Minotr F.D. properties file   722 does not exist.
 End of Minotr F.D. properties file   788 does not exist.

 **********************************************************************

            Population analysis using the SCF density.

 **********************************************************************

 Orbital symmetries:
       Occupied  (A) (A) (A) (A) (A) (A) (A) (A) (A) (A) (A) (A)
                 (A) (A) (A) (A) (A) (A) (A) (A) (A) (A) (A) (A)
                 (A) (A) (A) (A) (A) (A) (A) (A) (A) (A) (A) (A)
                 (A) (A) (A) (A) (A) (A) (A) (A) (A) (A) (A) (A)
                 (A) (A) (A) (A) (A) (A) (A) (A) (A) (A) (A) (A)
                 (A) (A) (A) (A) (A) (A) (A) (A) (A) (A) (A) (A)
                 (A) (A) (A) (A) (A) (A) (A) (A) (A) (A) (A) (A)
                 (A) (A) (A) (A) (A) (A) (A) (A) (A) (A) (A) (A)
                 (A) (A) (A) (A) (A) (A) (A) (A) (A) (A) (A) (A)
                 (A) (A) (A) (A) (A) (A) (A) (A) (A) (A) (A) (A)
                 (A) (A) (A) (A) (A) (A) (A) (A) (A) (A) (A) (A)
                 (A) (A) (A) (A) (A) (A) (A) (A) (A) (A) (A) (A)
                 (A) (A) (A) (A) (A) (A) (A) (A) (A) (A) (A) (A)
                 (A) (A) (A) (A) (A) (A) (A) (A) (A) (A) (A) (A)
                 (A) (A) (A) (A) (A) (A) (A) (A) (A) (A)
       Virtual   (A) (A) (A) (A) (A) (A) (A) (A) (A) (A) (A) (A)
                 (A) (A) (A) (A) (A) (A) (A) (A) (A) (A) (A) (A)
                 (A) (A) (A) (A) (A) (A) (A) (A) (A) (A) (A) (A)
                 (A) (A) (A) (A) (A) (A) (A) (A) (A) (A) (A) (A)
                 (A) (A) (A) (A) (A) (A) (A) (A) (A) (A) (A) (A)
                 (A) (A) (A) (A) (A) (A) (A) (A) (A) (A) (A) (A)
                 (A) (A) (A) (A) (A) (A) (A) (A) (A) (A) (A) (A)
                 (A) (A) (A) (A) (A) (A) (A) (A) (A) (A) (A) (A)
                 (A) (A) (A) (A) (A) (A) (A) (A) (A) (A) (A) (A)
                 (A) (A) (A) (A) (A) (A) (A) (A) (A) (A) (A) (A)
                 (A) (A) (A) (A) (A) (A) (A) (A) (A) (A) (A) (A)
                 (A) (A) (A) (A) (A) (A) (A) (A) (A) (A) (A) (A)
                 (A) (A) (A) (A) (A) (A) (A) (A) (A) (A) (A) (A)
                 (A) (A) (A) (A) (A) (A) (A) (A) (A) (A) (A) (A)
                 (A) (A) (A) (A) (A) (A) (A) (A) (A) (A) (A) (A)
                 (A) (A) (A) (A) (A) (A) (A) (A) (A) (A) (A) (A)
                 (A) (A) (A) (A) (A) (A) (A) (A) (A) (A) (A) (A)
                 (A) (A) (A) (A) (A) (A) (A) (A) (A) (A) (A) (A)
                 (A) (A) (A) (A) (A) (A) (A) (A) (A) (A) (A) (A)
                 (A) (A) (A) (A) (A) (A) (A) (A) (A) (A) (A) (A)
                 (A) (A) (A) (A) (A) (A) (A) (A) (A) (A) (A) (A)
                 (A) (A) (A) (A) (A) (A) (A) (A) (A) (A) (A) (A)
                 (A) (A) (A) (A) (A) (A) (A) (A) (A) (A) (A) (A)
                 (A) (A) (A) (A) (A) (A) (A) (A) (A) (A) (A) (A)
                 (A) (A) (A) (A) (A) (A) (A) (A) (A) (A) (A) (A)
                 (A) (A) (A) (A) (A) (A) (A) (A) (A) (A) (A) (A)
                 (A) (A) (A) (A) (A) (A) (A) (A) (A) (A) (A) (A)
                 (A) (A) (A) (A) (A) (A) (A) (A) (A) (A) (A) (A)
                 (A) (A) (A) (A) (A) (A) (A) (A) (A) (A) (A) (A)
                 (A) (A) (A) (A) (A) (A) (A) (A) (A) (A) (A) (A)
                 (A) (A) (A) (A) (A) (A) (A) (A) (A) (A) (A) (A)
                 (A) (A) (A) (A) (A) (A) (A) (A) (A) (A) (A) (A)
                 (A) (A) (A) (A) (A) (A) (A) (A) (A) (A) (A) (A)
                 (A) (A) (A) (A) (A) (A) (A) (A) (A) (A) (A) (A)
                 (A) (A) (A) (A) (A) (A) (A) (A) (A) (A) (A) (A)
                 (A) (A) (A) (A) (A) (A) (A) (A) (A) (A) (A) (A)
                 (A) (A) (A) (A) (A) (A) (A) (A) (A) (A) (A) (A)
                 (A) (A) (A) (A) (A) (A) (A) (A) (A) (A) (A) (A)
                 (A) (A) (A) (A) (A) (A) (A) (A) (A) (A) (A) (A)
                 (A) (A) (A) (A) (A) (A) (A) (A) (A) (A) (A) (A)
                 (A) (A) (A) (A) (A) (A) (A) (A) (A) (A) (A) (A)
                 (A) (A) (A) (A) (A) (A) (A) (A) (A) (A) (A) (A)
                 (A) (A) (A) (A) (A) (A) (A) (A) (A) (A) (A) (A)
                 (A) (A) (A) (A) (A) (A) (A) (A) (A) (A) (A) (A)
                 (A) (A) (A) (A) (A) (A) (A) (A) (A) (A) (A) (A)
                 (A) (A) (A) (A) (A) (A) (A) (A) (A) (A) (A) (A)
                 (A) (A) (A) (A) (A) (A) (A) (A) (A) (A) (A) (A)
                 (A) (A) (A) (A) (A) (A) (A) (A) (A) (A) (A) (A)
                 (A) (A) (A) (A) (A) (A) (A) (A) (A) (A) (A) (A)
                 (A) (A) (A) (A) (A) (A) (A) (A) (A) (A) (A) (A)
                 (A) (A) (A) (A) (A) (A) (A) (A) (A) (A) (A) (A)
                 (A) (A) (A) (A) (A) (A) (A) (A) (A) (A) (A) (A)
                 (A) (A) (A) (A) (A) (A) (A) (A) (A) (A) (A) (A)
                 (A) (A) (A) (A) (A) (A) (A) (A) (A) (A) (A) (A)
                 (A) (A) (A) (A) (A) (A) (A) (A) (A) (A) (A) (A)
                 (A) (A) (A) (A) (A) (A) (A) (A) (A) (A) (A) (A)
                 (A) (A) (A) (A) (A) (A) (A) (A) (A) (A) (A) (A)
                 (A) (A) (A) (A) (A) (A) (A) (A) (A) (A) (A) (A)
                 (A) (A) (A) (A) (A) (A) (A) (A) (A) (A) (A) (A)
                 (A) (A) (A) (A) (A) (A) (A) (A) (A) (A) (A) (A)
                 (A) (A) (A) (A) (A) (A) (A) (A) (A) (A) (A) (A)
                 (A) (A) (A) (A) (A) (A) (A) (A) (A) (A) (A) (A)
                 (A) (A) (A) (A) (A) (A) (A) (A) (A) (A) (A) (A)
                 (A) (A) (A) (A) (A) (A) (A) (A) (A) (A) (A) (A)
                 (A) (A) (A) (A) (A) (A) (A) (A) (A) (A) (A) (A)
                 (A) (A) (A) (A) (A) (A) (A) (A) (A) (A) (A) (A)
                 (A) (A) (A) (A) (A) (A) (A) (A) (A) (A) (A) (A)
                 (A) (A) (A) (A) (A) (A) (A) (A) (A) (A) (A) (A)
                 (A) (A) (A) (A) (A) (A) (A) (A) (A) (A) (A) (A)
                 (A) (A) (A) (A) (A) (A) (A) (A) (A) (A) (A) (A)
                 (A) (A) (A) (A) (A) (A) (A) (A) (A) (A) (A) (A)
                 (A) (A) (A) (A) (A) (A) (A) (A) (A) (A) (A) (A)
                 (A) (A) (A) (A) (A) (A) (A) (A) (A) (A) (A) (A)
                 (A) (A) (A) (A) (A) (A) (A) (A) (A) (A) (A) (A)
                 (A) (A) (A) (A) (A) (A) (A) (A) (A) (A) (A) (A)
                 (A) (A) (A) (A) (A) (A) (A) (A) (A) (A) (A) (A)
                 (A) (A) (A) (A) (A) (A) (A) (A) (A) (A) (A) (A)
                 (A) (A) (A) (A) (A) (A) (A) (A) (A) (A) (A) (A)
                 (A) (A) (A) (A) (A) (A) (A) (A) (A) (A) (A) (A)
                 (A) (A) (A) (A) (A) (A) (A) (A) (A) (A) (A) (A)
                 (A) (A) (A) (A) (A) (A) (A) (A) (A) (A) (A) (A)
                 (A) (A) (A) (A) (A) (A) (A) (A) (A) (A) (A) (A)
                 (A) (A) (A) (A) (A) (A) (A) (A) (A) (A) (A) (A)
                 (A) (A) (A) (A) (A) (A) (A) (A) (A) (A) (A) (A)
                 (A) (A) (A) (A) (A) (A) (A) (A) (A) (A) (A) (A)
                 (A) (A) (A) (A) (A) (A) (A) (A) (A) (A) (A) (A)
                 (A) (A) (A) (A) (A) (A) (A) (A) (A) (A) (A) (A)
                 (A) (A) (A) (A) (A) (A) (A) (A) (A) (A) (A) (A)
                 (A) (A) (A) (A) (A) (A) (A) (A) (A) (A) (A) (A)
                 (A) (A) (A) (A) (A) (A) (A) (A) (A) (A) (A) (A)
                 (A) (A) (A) (A) (A) (A) (A) (A) (A) (A) (A) (A)
                 (A) (A) (A) (A) (A) (A) (A) (A) (A) (A) (A) (A)
                 (A) (A) (A) (A) (A) (A) (A) (A) (A) (A) (A) (A)
                 (A) (A) (A) (A) (A) (A) (A) (A) (A) (A) (A) (A)
                 (A) (A) (A) (A) (A) (A) (A) (A) (A) (A) (A) (A)
                 (A) (A) (A) (A) (A) (A) (A) (A) (A) (A) (A) (A)
                 (A) (A) (A) (A) (A) (A) (A) (A) (A) (A) (A) (A)
                 (A) (A) (A) (A) (A) (A) (A) (A) (A) (A) (A) (A)
                 (A) (A) (A) (A) (A) (A) (A) (A) (A) (A) (A) (A)
                 (A) (A) (A) (A) (A) (A) (A) (A) (A) (A) (A) (A)
                 (A) (A) (A) (A) (A) (A) (A) (A) (A) (A) (A) (A)
                 (A) (A) (A) (A) (A) (A) (A) (A) (A) (A) (A) (A)
                 (A) (A) (A) (A) (A) (A) (A) (A) (A) (A) (A) (A)
                 (A) (A) (A) (A) (A) (A) (A) (A) (A) (A) (A) (A)
                 (A) (A) (A) (A) (A) (A) (A) (A) (A) (A) (A) (A)
                 (A) (A) (A) (A) (A) (A) (A) (A) (A) (A) (A) (A)
                 (A) (A) (A) (A) (A) (A) (A) (A) (A) (A) (A) (A)
                 (A) (A) (A) (A) (A) (A) (A) (A) (A) (A) (A) (A)
                 (A) (A) (A) (A) (A) (A) (A) (A) (A) (A) (A) (A)
                 (A) (A) (A) (A) (A) (A) (A) (A) (A) (A) (A) (A)
                 (A) (A) (A) (A) (A) (A) (A) (A) (A) (A) (A) (A)
                 (A) (A) (A) (A) (A) (A) (A) (A) (A) (A) (A) (A)
                 (A) (A) (A) (A) (A) (A) (A) (A) (A) (A) (A) (A)
                 (A) (A) (A) (A) (A) (A) (A) (A) (A) (A) (A) (A)
                 (A) (A) (A) (A) (A) (A) (A) (A) (A) (A) (A) (A)
                 (A) (A) (A) (A) (A) (A) (A) (A) (A) (A) (A) (A)
                 (A) (A) (A) (A) (A) (A) (A) (A) (A) (A) (A) (A)
                 (A) (A) (A) (A) (A) (A) (A) (A) (A) (A) (A) (A)
                 (A) (A) (A) (A) (A) (A) (A) (A) (A) (A) (A) (A)
                 (A) (A) (A) (A) (A) (A) (A) (A) (A) (A)
 The electronic state is 1-A.
 Alpha  occ. eigenvalues -- -101.60757-101.60583 -77.26460 -77.26452 -19.26935
 Alpha  occ. eigenvalues --  -10.31566 -10.31344 -10.27969 -10.26622 -10.26507
 Alpha  occ. eigenvalues --  -10.26369 -10.26209 -10.25934 -10.25804 -10.25799
 Alpha  occ. eigenvalues --  -10.25783 -10.25598 -10.25587 -10.25297 -10.25133
 Alpha  occ. eigenvalues --  -10.25127 -10.25095 -10.25069 -10.24947 -10.24888
 Alpha  occ. eigenvalues --  -10.24877 -10.24822 -10.24808 -10.24583 -10.24533
 Alpha  occ. eigenvalues --  -10.24456 -10.24381 -10.23987 -10.23866 -10.23816
 Alpha  occ. eigenvalues --  -10.23702 -10.23630 -10.23584 -10.23563 -10.23526
 Alpha  occ. eigenvalues --  -10.23512 -10.23313 -10.23141 -10.22757  -9.43256
 Alpha  occ. eigenvalues --   -9.43087  -7.16491  -7.16302  -7.15972  -7.15903
 Alpha  occ. eigenvalues --   -7.15801  -7.15751  -6.65602  -6.65589  -4.79223
 Alpha  occ. eigenvalues --   -4.79212  -4.79174  -4.79156  -4.78914  -4.78900
 Alpha  occ. eigenvalues --   -3.50848  -2.18776  -2.18430  -2.14975  -1.13848
 Alpha  occ. eigenvalues --   -0.91063  -0.90934  -0.89949  -0.89250  -0.88400
 Alpha  occ. eigenvalues --   -0.88183  -0.86169  -0.81673  -0.80932  -0.80020
 Alpha  occ. eigenvalues --   -0.78719  -0.78543  -0.78130  -0.77868  -0.77291
 Alpha  occ. eigenvalues --   -0.77239  -0.77036  -0.76911  -0.76302  -0.73561
 Alpha  occ. eigenvalues --   -0.72653  -0.72553  -0.69537  -0.69181  -0.67198
 Alpha  occ. eigenvalues --   -0.67125  -0.64177  -0.63992  -0.63342  -0.62960
 Alpha  occ. eigenvalues --   -0.62669  -0.62393  -0.62190  -0.61919  -0.59929
 Alpha  occ. eigenvalues --   -0.59248  -0.58108  -0.57638  -0.54583  -0.54197
 Alpha  occ. eigenvalues --   -0.53544  -0.52965  -0.52553  -0.51260  -0.50697
 Alpha  occ. eigenvalues --   -0.49739  -0.49213  -0.48451  -0.48274  -0.48236
 Alpha  occ. eigenvalues --   -0.47770  -0.47398  -0.47277  -0.47119  -0.47032
 Alpha  occ. eigenvalues --   -0.46746  -0.46520  -0.45161  -0.44709  -0.44430
 Alpha  occ. eigenvalues --   -0.44377  -0.43922  -0.43794  -0.43566  -0.43538
 Alpha  occ. eigenvalues --   -0.43307  -0.42023  -0.41667  -0.41485  -0.41122
 Alpha  occ. eigenvalues --   -0.40883  -0.40772  -0.40473  -0.39587  -0.39129
 Alpha  occ. eigenvalues --   -0.38769  -0.38394  -0.38122  -0.37863  -0.37517
 Alpha  occ. eigenvalues --   -0.37274  -0.37028  -0.36798  -0.36644  -0.36466
 Alpha  occ. eigenvalues --   -0.36062  -0.35803  -0.35470  -0.35325  -0.34872
 Alpha  occ. eigenvalues --   -0.34232  -0.32651  -0.31162  -0.30618  -0.30248
 Alpha  occ. eigenvalues --   -0.29900  -0.29013  -0.28819  -0.28530  -0.28030
 Alpha  occ. eigenvalues --   -0.27978  -0.27357  -0.27090  -0.26887  -0.26606
 Alpha  occ. eigenvalues --   -0.26062  -0.25933  -0.25477  -0.24198  -0.23731
 Alpha  occ. eigenvalues --   -0.23304  -0.22725  -0.22247
 Alpha virt. eigenvalues --   -0.07476  -0.05773  -0.04683  -0.03932  -0.03395
 Alpha virt. eigenvalues --   -0.03221  -0.02956  -0.02549  -0.02061  -0.01851
 Alpha virt. eigenvalues --   -0.01361  -0.01235  -0.00575   0.00690   0.01736
 Alpha virt. eigenvalues --    0.03432   0.03609   0.04026   0.04484   0.05013
 Alpha virt. eigenvalues --    0.05385   0.05697   0.06161   0.06549   0.06745
 Alpha virt. eigenvalues --    0.07086   0.07387   0.07725   0.08132   0.08262
 Alpha virt. eigenvalues --    0.08504   0.08678   0.09076   0.09472   0.09720
 Alpha virt. eigenvalues --    0.09784   0.10020   0.10232   0.10367   0.10639
 Alpha virt. eigenvalues --    0.10783   0.10986   0.11235   0.11523   0.11733
 Alpha virt. eigenvalues --    0.11903   0.12147   0.12340   0.12812   0.12839
 Alpha virt. eigenvalues --    0.12966   0.13209   0.13490   0.13564   0.13952
 Alpha virt. eigenvalues --    0.14363   0.14556   0.14761   0.15189   0.15480
 Alpha virt. eigenvalues --    0.15630   0.16025   0.16229   0.16666   0.17101
 Alpha virt. eigenvalues --    0.17314   0.17690   0.17910   0.18133   0.18513
 Alpha virt. eigenvalues --    0.18801   0.19163   0.19413   0.19522   0.20180
 Alpha virt. eigenvalues --    0.20333   0.20682   0.20770   0.21006   0.21183
 Alpha virt. eigenvalues --    0.21268   0.21555   0.21768   0.21964   0.22083
 Alpha virt. eigenvalues --    0.22328   0.22867   0.22937   0.23123   0.23298
 Alpha virt. eigenvalues --    0.23514   0.23652   0.23855   0.24035   0.24273
 Alpha virt. eigenvalues --    0.24385   0.24939   0.25101   0.25265   0.25328
 Alpha virt. eigenvalues --    0.25439   0.25558   0.25633   0.26217   0.26254
 Alpha virt. eigenvalues --    0.26416   0.26931   0.27106   0.27228   0.27336
 Alpha virt. eigenvalues --    0.27593   0.27877   0.27964   0.28148   0.28738
 Alpha virt. eigenvalues --    0.28799   0.28847   0.29204   0.29504   0.29714
 Alpha virt. eigenvalues --    0.29975   0.30293   0.30488   0.30744   0.30940
 Alpha virt. eigenvalues --    0.31118   0.31187   0.31411   0.31813   0.32042
 Alpha virt. eigenvalues --    0.32299   0.32470   0.33054   0.33247   0.33525
 Alpha virt. eigenvalues --    0.33839   0.34255   0.34520   0.34608   0.34746
 Alpha virt. eigenvalues --    0.35185   0.35309   0.35391   0.35705   0.35927
 Alpha virt. eigenvalues --    0.36033   0.36390   0.36540   0.36681   0.37139
 Alpha virt. eigenvalues --    0.37241   0.37552   0.37625   0.38230   0.38325
 Alpha virt. eigenvalues --    0.38574   0.38678   0.38965   0.39126   0.39296
 Alpha virt. eigenvalues --    0.39445   0.39695   0.39931   0.40070   0.40218
 Alpha virt. eigenvalues --    0.40301   0.40338   0.40748   0.40799   0.40967
 Alpha virt. eigenvalues --    0.41288   0.41395   0.41717   0.41877   0.42063
 Alpha virt. eigenvalues --    0.42287   0.42355   0.42603   0.42826   0.42911
 Alpha virt. eigenvalues --    0.43011   0.43156   0.43432   0.43653   0.43733
 Alpha virt. eigenvalues --    0.44003   0.44217   0.44337   0.44506   0.44675
 Alpha virt. eigenvalues --    0.44840   0.44999   0.45098   0.45235   0.45564
 Alpha virt. eigenvalues --    0.45572   0.45846   0.46048   0.46244   0.46379
 Alpha virt. eigenvalues --    0.46520   0.46856   0.47129   0.47295   0.47407
 Alpha virt. eigenvalues --    0.47549   0.47988   0.48075   0.48427   0.48682
 Alpha virt. eigenvalues --    0.48764   0.48875   0.49277   0.49445   0.49882
 Alpha virt. eigenvalues --    0.49896   0.50002   0.50138   0.50538   0.50793
 Alpha virt. eigenvalues --    0.50915   0.51049   0.51250   0.51404   0.51679
 Alpha virt. eigenvalues --    0.52166   0.52247   0.52570   0.52712   0.53026
 Alpha virt. eigenvalues --    0.53310   0.53855   0.53927   0.54050   0.54330
 Alpha virt. eigenvalues --    0.54498   0.54650   0.55247   0.55569   0.56184
 Alpha virt. eigenvalues --    0.56355   0.56571   0.56901   0.57023   0.57296
 Alpha virt. eigenvalues --    0.57669   0.58227   0.58545   0.59294   0.59410
 Alpha virt. eigenvalues --    0.59584   0.59829   0.60000   0.60423   0.60475
 Alpha virt. eigenvalues --    0.60890   0.61109   0.61442   0.61670   0.62231
 Alpha virt. eigenvalues --    0.62672   0.63036   0.63326   0.63680   0.63907
 Alpha virt. eigenvalues --    0.64042   0.64331   0.64835   0.64973   0.65453
 Alpha virt. eigenvalues --    0.65649   0.65931   0.66154   0.66575   0.66765
 Alpha virt. eigenvalues --    0.67005   0.67081   0.67478   0.67863   0.67910
 Alpha virt. eigenvalues --    0.68372   0.68626   0.68992   0.69208   0.69460
 Alpha virt. eigenvalues --    0.69504   0.69912   0.69999   0.70314   0.70527
 Alpha virt. eigenvalues --    0.70795   0.70947   0.71136   0.71305   0.71680
 Alpha virt. eigenvalues --    0.71906   0.72197   0.72307   0.72543   0.72741
 Alpha virt. eigenvalues --    0.73279   0.73458   0.73676   0.73854   0.74223
 Alpha virt. eigenvalues --    0.74507   0.75000   0.75080   0.75270   0.75550
 Alpha virt. eigenvalues --    0.75977   0.76039   0.76502   0.76687   0.76792
 Alpha virt. eigenvalues --    0.77291   0.77466   0.77828   0.77895   0.78188
 Alpha virt. eigenvalues --    0.78857   0.78957   0.79295   0.79400   0.79545
 Alpha virt. eigenvalues --    0.79938   0.80490   0.80623   0.80736   0.81431
 Alpha virt. eigenvalues --    0.81497   0.81821   0.82123   0.82537   0.82680
 Alpha virt. eigenvalues --    0.82814   0.83605   0.83888   0.84020   0.84594
 Alpha virt. eigenvalues --    0.85087   0.85209   0.85294   0.85481   0.85690
 Alpha virt. eigenvalues --    0.85972   0.86612   0.86704   0.86992   0.87324
 Alpha virt. eigenvalues --    0.87896   0.88358   0.88403   0.88984   0.89393
 Alpha virt. eigenvalues --    0.89642   0.90080   0.90318   0.90452   0.90766
 Alpha virt. eigenvalues --    0.91044   0.91400   0.91997   0.92374   0.92597
 Alpha virt. eigenvalues --    0.92639   0.93305   0.93375   0.93941   0.94188
 Alpha virt. eigenvalues --    0.94525   0.94960   0.95144   0.95610   0.96021
 Alpha virt. eigenvalues --    0.96278   0.96616   0.96712   0.97175   0.97433
 Alpha virt. eigenvalues --    0.97767   0.97904   0.98235   0.98616   0.98971
 Alpha virt. eigenvalues --    0.99407   0.99992   1.00598   1.00843   1.01476
 Alpha virt. eigenvalues --    1.01903   1.02174   1.02520   1.02876   1.03232
 Alpha virt. eigenvalues --    1.03540   1.03853   1.04864   1.05119   1.05807
 Alpha virt. eigenvalues --    1.05970   1.06237   1.06894   1.07433   1.07620
 Alpha virt. eigenvalues --    1.07759   1.08206   1.08441   1.08987   1.09570
 Alpha virt. eigenvalues --    1.09730   1.10183   1.10442   1.10957   1.11040
 Alpha virt. eigenvalues --    1.11501   1.11982   1.12428   1.12902   1.12999
 Alpha virt. eigenvalues --    1.13770   1.13936   1.14229   1.14258   1.14705
 Alpha virt. eigenvalues --    1.15299   1.15601   1.15638   1.15947   1.16327
 Alpha virt. eigenvalues --    1.16833   1.17210   1.17981   1.18059   1.18531
 Alpha virt. eigenvalues --    1.18760   1.18969   1.19271   1.19664   1.20009
 Alpha virt. eigenvalues --    1.20277   1.20370   1.21012   1.21540   1.21682
 Alpha virt. eigenvalues --    1.21963   1.22471   1.22865   1.23384   1.23578
 Alpha virt. eigenvalues --    1.23935   1.24082   1.24362   1.25032   1.25085
 Alpha virt. eigenvalues --    1.25329   1.25488   1.25986   1.26049   1.26232
 Alpha virt. eigenvalues --    1.26671   1.27007   1.27206   1.27371   1.27965
 Alpha virt. eigenvalues --    1.28265   1.28759   1.28931   1.29222   1.29508
 Alpha virt. eigenvalues --    1.30005   1.30311   1.30527   1.30698   1.30792
 Alpha virt. eigenvalues --    1.31172   1.31373   1.31633   1.32019   1.32386
 Alpha virt. eigenvalues --    1.32928   1.33218   1.33544   1.33768   1.34179
 Alpha virt. eigenvalues --    1.34285   1.34677   1.35004   1.35408   1.35946
 Alpha virt. eigenvalues --    1.36626   1.36972   1.37601   1.37976   1.38412
 Alpha virt. eigenvalues --    1.38807   1.39217   1.39564   1.40000   1.40613
 Alpha virt. eigenvalues --    1.41280   1.41639   1.41979   1.42115   1.42876
 Alpha virt. eigenvalues --    1.42936   1.43542   1.44516   1.44825   1.45114
 Alpha virt. eigenvalues --    1.45463   1.45740   1.45997   1.46763   1.46807
 Alpha virt. eigenvalues --    1.47211   1.47674   1.47914   1.48216   1.48468
 Alpha virt. eigenvalues --    1.48696   1.49388   1.49494   1.49797   1.50451
 Alpha virt. eigenvalues --    1.50845   1.51247   1.51630   1.51806   1.52360
 Alpha virt. eigenvalues --    1.52845   1.53185   1.53207   1.54012   1.54176
 Alpha virt. eigenvalues --    1.54518   1.54830   1.55134   1.55459   1.55786
 Alpha virt. eigenvalues --    1.56073   1.56512   1.56619   1.56896   1.57095
 Alpha virt. eigenvalues --    1.57700   1.57851   1.58146   1.58654   1.59012
 Alpha virt. eigenvalues --    1.59411   1.59602   1.60083   1.60164   1.60754
 Alpha virt. eigenvalues --    1.61063   1.61400   1.61903   1.62048   1.62498
 Alpha virt. eigenvalues --    1.62860   1.63344   1.63422   1.63888   1.64018
 Alpha virt. eigenvalues --    1.64118   1.64943   1.65132   1.65395   1.65529
 Alpha virt. eigenvalues --    1.65895   1.66182   1.66705   1.66994   1.67290
 Alpha virt. eigenvalues --    1.67576   1.67682   1.68084   1.68338   1.68618
 Alpha virt. eigenvalues --    1.68899   1.69034   1.69636   1.69842   1.70140
 Alpha virt. eigenvalues --    1.70418   1.70850   1.71024   1.71350   1.71658
 Alpha virt. eigenvalues --    1.71887   1.72416   1.72651   1.73081   1.73343
 Alpha virt. eigenvalues --    1.73355   1.73810   1.74237   1.74366   1.74805
 Alpha virt. eigenvalues --    1.75328   1.75476   1.75704   1.76262   1.76639
 Alpha virt. eigenvalues --    1.77098   1.77203   1.77811   1.78427   1.78558
 Alpha virt. eigenvalues --    1.78959   1.79177   1.79300   1.79837   1.79976
 Alpha virt. eigenvalues --    1.80779   1.81388   1.81926   1.82078   1.82322
 Alpha virt. eigenvalues --    1.82835   1.83465   1.83563   1.84471   1.84585
 Alpha virt. eigenvalues --    1.84958   1.85703   1.86014   1.86459   1.86763
 Alpha virt. eigenvalues --    1.87566   1.87755   1.87986   1.88484   1.89060
 Alpha virt. eigenvalues --    1.89584   1.89921   1.90800   1.91024   1.91461
 Alpha virt. eigenvalues --    1.92389   1.92693   1.92752   1.93330   1.93531
 Alpha virt. eigenvalues --    1.93864   1.94766   1.94849   1.95182   1.95542
 Alpha virt. eigenvalues --    1.96010   1.96395   1.97361   1.97592   1.98366
 Alpha virt. eigenvalues --    1.98588   1.98718   1.99100   1.99408   2.00240
 Alpha virt. eigenvalues --    2.00572   2.00711   2.01138   2.01550   2.02139
 Alpha virt. eigenvalues --    2.02634   2.03254   2.03391   2.03664   2.04097
 Alpha virt. eigenvalues --    2.04419   2.04844   2.05124   2.05490   2.06091
 Alpha virt. eigenvalues --    2.06228   2.06454   2.06668   2.07727   2.07913
 Alpha virt. eigenvalues --    2.08215   2.08933   2.09132   2.09807   2.09956
 Alpha virt. eigenvalues --    2.10151   2.10343   2.10956   2.11301   2.11517
 Alpha virt. eigenvalues --    2.11708   2.11917   2.12650   2.12829   2.13057
 Alpha virt. eigenvalues --    2.13554   2.13604   2.13956   2.14067   2.14360
 Alpha virt. eigenvalues --    2.14985   2.15475   2.15629   2.16293   2.16468
 Alpha virt. eigenvalues --    2.16867   2.17150   2.17415   2.17737   2.18078
 Alpha virt. eigenvalues --    2.18256   2.18792   2.18911   2.19046   2.19388
 Alpha virt. eigenvalues --    2.19776   2.20155   2.20425   2.20475   2.21059
 Alpha virt. eigenvalues --    2.21428   2.21784   2.21925   2.22604   2.22854
 Alpha virt. eigenvalues --    2.23448   2.23673   2.23843   2.24199   2.24949
 Alpha virt. eigenvalues --    2.25273   2.25461   2.25935   2.26221   2.26329
 Alpha virt. eigenvalues --    2.26695   2.27267   2.27612   2.28114   2.28199
 Alpha virt. eigenvalues --    2.28624   2.29034   2.29549   2.30338   2.30881
 Alpha virt. eigenvalues --    2.31650   2.31781   2.32123   2.32866   2.33389
 Alpha virt. eigenvalues --    2.33558   2.34385   2.34994   2.35591   2.36062
 Alpha virt. eigenvalues --    2.36301   2.37203   2.37866   2.38313   2.38830
 Alpha virt. eigenvalues --    2.39077   2.39344   2.40098   2.40541   2.41117
 Alpha virt. eigenvalues --    2.41448   2.41808   2.42476   2.42814   2.43093
 Alpha virt. eigenvalues --    2.43503   2.43899   2.44239   2.44832   2.44965
 Alpha virt. eigenvalues --    2.45283   2.45509   2.46215   2.46363   2.46748
 Alpha virt. eigenvalues --    2.46988   2.47513   2.47571   2.48530   2.48898
 Alpha virt. eigenvalues --    2.49464   2.49667   2.50271   2.50647   2.51169
 Alpha virt. eigenvalues --    2.51721   2.51918   2.52076   2.52620   2.52884
 Alpha virt. eigenvalues --    2.53334   2.53703   2.54185   2.54772   2.55430
 Alpha virt. eigenvalues --    2.55617   2.56372   2.56481   2.56791   2.57084
 Alpha virt. eigenvalues --    2.58015   2.58438   2.58538   2.58661   2.59354
 Alpha virt. eigenvalues --    2.59513   2.59833   2.60199   2.60344   2.61045
 Alpha virt. eigenvalues --    2.61487   2.61937   2.62098   2.62356   2.62515
 Alpha virt. eigenvalues --    2.62675   2.62846   2.63602   2.63935   2.64080
 Alpha virt. eigenvalues --    2.64155   2.64569   2.64790   2.64923   2.65431
 Alpha virt. eigenvalues --    2.65509   2.65745   2.66053   2.66387   2.66486
 Alpha virt. eigenvalues --    2.66760   2.66932   2.67310   2.67382   2.67774
 Alpha virt. eigenvalues --    2.68129   2.68448   2.68647   2.69039   2.69602
 Alpha virt. eigenvalues --    2.69820   2.70057   2.70321   2.70665   2.70971
 Alpha virt. eigenvalues --    2.71434   2.71759   2.72033   2.72089   2.72442
 Alpha virt. eigenvalues --    2.72797   2.73050   2.73301   2.73672   2.73921
 Alpha virt. eigenvalues --    2.74081   2.74632   2.74873   2.74992   2.75333
 Alpha virt. eigenvalues --    2.75994   2.76237   2.76452   2.76868   2.77007
 Alpha virt. eigenvalues --    2.77452   2.77767   2.77795   2.78129   2.78702
 Alpha virt. eigenvalues --    2.78882   2.79151   2.79322   2.79676   2.80063
 Alpha virt. eigenvalues --    2.80625   2.80726   2.80863   2.80980   2.81737
 Alpha virt. eigenvalues --    2.82035   2.82168   2.82726   2.82865   2.83038
 Alpha virt. eigenvalues --    2.83226   2.83839   2.84075   2.84539   2.84704
 Alpha virt. eigenvalues --    2.85003   2.85435   2.85584   2.85996   2.86139
 Alpha virt. eigenvalues --    2.86788   2.86872   2.87385   2.87424   2.87561
 Alpha virt. eigenvalues --    2.87998   2.88267   2.88539   2.88788   2.89231
 Alpha virt. eigenvalues --    2.89938   2.90005   2.90221   2.90507   2.90781
 Alpha virt. eigenvalues --    2.91455   2.91511   2.92174   2.92234   2.92641
 Alpha virt. eigenvalues --    2.92717   2.93440   2.93725   2.93811   2.94223
 Alpha virt. eigenvalues --    2.94665   2.94913   2.95750   2.96170   2.96356
 Alpha virt. eigenvalues --    2.97440   2.97949   2.98303   2.98891   2.99208
 Alpha virt. eigenvalues --    2.99748   3.00379   3.01066   3.01304   3.01722
 Alpha virt. eigenvalues --    3.02883   3.03069   3.03664   3.03900   3.04386
 Alpha virt. eigenvalues --    3.05328   3.05461   3.06378   3.06528   3.06885
 Alpha virt. eigenvalues --    3.07375   3.07492   3.07957   3.08332   3.08613
 Alpha virt. eigenvalues --    3.09303   3.09895   3.10189   3.10815   3.11181
 Alpha virt. eigenvalues --    3.12007   3.12297   3.12598   3.12820   3.13127
 Alpha virt. eigenvalues --    3.13363   3.13804   3.13887   3.14199   3.14395
 Alpha virt. eigenvalues --    3.14693   3.14985   3.15417   3.15603   3.15974
 Alpha virt. eigenvalues --    3.16648   3.16848   3.17377   3.17392   3.17572
 Alpha virt. eigenvalues --    3.17916   3.18273   3.18796   3.19016   3.19334
 Alpha virt. eigenvalues --    3.19509   3.19669   3.19945   3.20190   3.20597
 Alpha virt. eigenvalues --    3.20933   3.21615   3.21979   3.22155   3.22344
 Alpha virt. eigenvalues --    3.22829   3.23190   3.23290   3.23870   3.24035
 Alpha virt. eigenvalues --    3.24340   3.24654   3.24945   3.25307   3.25626
 Alpha virt. eigenvalues --    3.25976   3.26169   3.26698   3.26894   3.27179
 Alpha virt. eigenvalues --    3.27593   3.27707   3.28237   3.28571   3.29025
 Alpha virt. eigenvalues --    3.29162   3.29417   3.29923   3.30218   3.30488
 Alpha virt. eigenvalues --    3.31108   3.31438   3.32064   3.32144   3.32368
 Alpha virt. eigenvalues --    3.32803   3.32999   3.33251   3.33551   3.33790
 Alpha virt. eigenvalues --    3.34039   3.34247   3.34635   3.35260   3.35279
 Alpha virt. eigenvalues --    3.35508   3.35665   3.35872   3.36342   3.36542
 Alpha virt. eigenvalues --    3.36634   3.37062   3.37740   3.37832   3.38031
 Alpha virt. eigenvalues --    3.38312   3.38916   3.39060   3.39215   3.39335
 Alpha virt. eigenvalues --    3.39468   3.39938   3.40127   3.40499   3.40594
 Alpha virt. eigenvalues --    3.41045   3.41611   3.41820   3.42304   3.42476
 Alpha virt. eigenvalues --    3.42839   3.42871   3.43273   3.43461   3.43591
 Alpha virt. eigenvalues --    3.43803   3.44209   3.44407   3.44425   3.45110
 Alpha virt. eigenvalues --    3.45285   3.45438   3.46053   3.46318   3.46441
 Alpha virt. eigenvalues --    3.46971   3.47105   3.47675   3.47816   3.47986
 Alpha virt. eigenvalues --    3.48418   3.49012   3.49327   3.49469   3.49837
 Alpha virt. eigenvalues --    3.50163   3.50238   3.50733   3.51230   3.51359
 Alpha virt. eigenvalues --    3.51920   3.52139   3.52404   3.52675   3.53072
 Alpha virt. eigenvalues --    3.53122   3.53446   3.53744   3.53949   3.54290
 Alpha virt. eigenvalues --    3.54613   3.54949   3.55016   3.55310   3.55582
 Alpha virt. eigenvalues --    3.55792   3.56091   3.56445   3.56854   3.57367
 Alpha virt. eigenvalues --    3.57769   3.57987   3.58427   3.58710   3.59113
[...]
                                                    212(v),211(v),1493(v)
                                                    1200(r),855(r),1441(g)
                                                    1381(r),468(v),1023(r)
                                                    186(g),365(r),341(r),183(g)
                                                    601(r),173(g),1461(v),917(r)
                                                    873(v),1021(r),866(v)
                                                    1460(v),624(v),496(r),236(r)
                                                    213(v),1459(v),1177(r)
                                                    1492(v),864(v),628(v),237(r)
                                                    194(g),1210(r),632(v),210(v)
                                                    473(v),1026(r),1556(r)
                                                    653(r),1391(r),218(v)
                                                    1206(r),652(r),193(g),602(r)
                                                    1473(v),1179(r),1183(r)
                                                    1489(v),348(r),1487(v)
                                                    1230(r),1438(g),863(v)
                                                    221(v),605(r),1241(r),835(r)
                                                    1053(r),1462(v),1050(r)
                                                    922(r),471(v),1024(r)
                                                    1046(r),1554(r),483(v)
                                                    901(r),758(r),1501(v)
                                                    1028(r),1411(r),1058(r)
                                                    780(r),501(r),340(r),879(v)
                                                    1072(r),1235(r),600(r)
                                                    606(r),504(r),215(v),201(g)
                                                    313(r),1458(g)
  1519. BD*(   1) C   2 - C   3          0.02174     0.49863   
  1520. BD*(   1) C   2 - C   7          0.03449     0.49431   
  1521. BD*(   2) C   2 - C   7          0.40104    -0.00058  1523(v),1528(v),1577(r)
                                                    1516(v),340(g),211(g)
                                                    1545(r),1517(v),1533(v)
  1522. BD*(   1) C   3 - C   4          0.01521     0.52516   
  1523. BD*(   2) C   3 - C   4          0.31793     0.01015  1528(v),1521(v),262(g)
                                                    1561(r)
  1524. BD*(   1) C   3 - H  24          0.01464     0.39781   
  1525. BD*(   1) C   4 - C   5          0.01323     0.51921   
  1526. BD*(   1) C   4 - H  26          0.01341     0.38602   
  1527. BD*(   1) C   5 - C   6          0.02060     0.51861   
  1528. BD*(   2) C   5 - C   6          0.33568     0.01477  1523(v),1521(v),1584(r)
                                                    288(g),1535(v),1536(v)
  1529. BD*(   1) C   5 - H  25          0.01470     0.38710   
  1530. BD*(   1) C   6 - C   7          0.03741     0.49785   
  1531. BD*(   1) C   6 - C   9          0.03803     0.34515   
  1532. BD*(   1) C   7 - O   8          0.03310     0.31793   
  1533. BD*(   1) O   8 - C  46          0.03365     0.31524   
  1534. BD*(   1) C   9 - C  10          0.01837     0.32358   
  1535. BD*(   1) C   9 - C  11          0.02709     0.30349   
  1536. BD*(   1) C   9 - C  45          0.03779     0.34716   
  1537. BD*(   1) C  10 - H  27          0.00680     0.35960   
  1538. BD*(   1) C  10 - H  28          0.00689     0.35941   
  1539. BD*(   1) C  10 - H  62          0.00684     0.35946   
  1540. BD*(   1) C  11 - H  29          0.00618     0.38217   
  1541. BD*(   1) C  11 - H  30          0.00688     0.36542   
  1542. BD*(   1) C  11 - H  63          0.00685     0.36606   
  1543. BD*(   1) C  12 - C  13          0.02864     0.51178   
  1544. BD*(   1) C  12 - C  17          0.02397     0.50606   
  1545. BD*(   2) C  12 - C  17          0.37245     0.00767  1552(v),1547(v),1517(v)
                                                    600(g),1598(r),1588(r)
                                                    1521(r)
  1546. BD*(   1) C  13 - C  14          0.01579     0.52785   
  1547. BD*(   2) C  13 - C  14          0.31303     0.01401  1552(v),1545(v),522(g)
                                                    1598(r),496(g),1588(r)
  1548. BD*(   1) C  13 - H  35          0.01720     0.40015   
  1549. BD*(   1) C  14 - C  15          0.01466     0.52199   
  1550. BD*(   1) C  14 - H  36          0.01361     0.39025   
  1551. BD*(   1) C  15 - C  16          0.01477     0.52422   
  1552. BD*(   2) C  15 - C  16          0.31673     0.01418  1547(v),1545(v),1593(r)
                                                    548(g),574(g),1588(r)
  1553. BD*(   1) C  15 - H  37          0.01307     0.39327   
  1554. BD*(   1) C  16 - C  17          0.01711     0.53245   
  1555. BD*(   1) C  16 - H  38          0.01367     0.39432   
  1556. BD*(   1) C  17 - H  39          0.01599     0.41120   
  1557. BD*(   1) C  18 - C  19          0.02368     0.52009   
  1558. BD*(   1) C  18 - C  23          0.02460     0.52483   
  1559. BD*(   2) C  18 - C  23          0.37278     0.02214  1565(v),1561(v),1598(r)
                                                    756(g),1515(v),755(g)
  1560. BD*(   1) C  19 - C  21          0.01564     0.54895   
  1561. BD*(   2) C  19 - C  21          0.29788     0.03511  1565(v),1559(v),704(g)
                                                    1523(r)
  1562. BD*(   1) C  19 - H  31          0.01415     0.42458   
  1563. BD*(   1) C  20 - C  21          0.01459     0.53709   
  1564. BD*(   1) C  20 - C  22          0.01443     0.53873   
  1565. BD*(   2) C  20 - C  22          0.32296     0.02698  1559(v),1561(v),678(g)
                                                    730(g)
  1566. BD*(   1) C  20 - H  32          0.01288     0.40493   
  1567. BD*(   1) C  21 - H  74          0.01345     0.40457   
  1568. BD*(   1) C  22 - C  23          0.01499     0.53996   
  1569. BD*(   1) C  22 - H  33          0.01328     0.40260   
  1570. BD*(   1) C  23 - H  34          0.01541     0.40831   
  1571. BD*(   1) P  40 - C  41          0.06145     0.19323   
  1572. BD*(   1) P  40 - C  47          0.09307     0.19622   
  1573. BD*(   1) P  40 - C  53          0.05977     0.21300   
  1574. BD*(   1) P  40 -Pd  75          0.16700     0.61203  1518(g),1440(g),1452(g)
                                                    860(g),180(v),1454(g)
                                                    1445(g),1443(g),1437(g)
                                                    1448(g),1446(g),1442(g)
                                                    1491(v),1463(v),1449(g)
                                                    889(v),1451(g),209(r),815(r)
                                                    1439(g),1444(g),181(v)
                                                    1453(g),1615(g),1045(v)
                                                    1436(g),871(g),187(v),469(r)
                                                    626(r),189(v),1202(v)
                                                    1455(g),867(g),888(v)
                                                    1447(g),1201(v),208(r)
                                                    1450(g),190(v),191(v),862(g)
                                                    1386(r),868(g),625(r)
                                                    1019(r),188(v),1493(v)
                                                    364(r),892(v),1465(v)
                                                    1044(v),472(r),339(r),866(g)
                                                    830(r),497(r),1023(r),343(r)
                                                    184(v),365(r),341(r),346(r)
                                                    864(g),624(r),212(r),211(r)
                                                    601(r),1466(v),1489(v)
                                                    1487(v),182(v),917(r),468(r)
                                                    873(g),1026(r),237(r)
                                                    1200(v),1177(r),1206(v)
                                                    213(r),1492(v),1488(v)
                                                    173(g),1462(v),236(r),855(r)
                                                    1210(v),1461(v),496(r)
                                                    628(r),1381(r),1441(g)
                                                    863(g),1021(r),861(g),901(v)
                                                    186(v),183(v),1179(r),194(v)
                                                    1473(v),632(r),1183(r)
                                                    653(r),780(r),210(r),1050(v)
                                                    835(r),340(r),1501(v)
                                                    1024(r),1027(r),1241(r)
                                                    473(r),193(v),602(r),1053(v)
                                                    1464(v),1391(r),1230(r)
                                                    1411(r),1028(r),196(v)
                                                    1058(v),215(r),1459(v)
                                                    348(r),922(r),1494(v)
                                                    1071(r),1556(r),652(r)
                                                    758(r),221(r),1235(r)
                                                    1458(g),1238(r),605(r)
                                                    1509(v),201(v),218(r)
                                                    1072(r),1505(v),870(g)
                                                    1604(r),1495(v),1460(v)
  1575. BD*(   1) C  41 - C  42          0.02220     0.50175   
  1576. BD*(   1) C  41 - C  46          0.03359     0.49612   
  1577. BD*(   2) C  41 - C  46          0.39644     0.00209  1579(v),1584(v),1521(r)
                                                    1588(r),1572(v),1573(v)
                                                    1020(g),1532(v)
  1578. BD*(   1) C  42 - C  43          0.01491     0.52675   
  1579. BD*(   2) C  42 - C  43          0.31272     0.01288  1588(r),1584(v),1577(v)
                                                    942(g)
  1580. BD*(   1) C  42 - H  59          0.01461     0.39403   
  1581. BD*(   1) C  43 - C  44          0.01309     0.52117   
  1582. BD*(   1) C  43 - H  61          0.01319     0.38838   
  1583. BD*(   1) C  44 - C  45          0.02069     0.52085   
  1584. BD*(   2) C  44 - C  45          0.33722     0.01652  1579(v),1577(v),1528(r)
                                                    968(g),1535(v),1531(v)
  1585. BD*(   1) C  44 - H  60          0.01466     0.38907   
  1586. BD*(   1) C  45 - C  46          0.03732     0.50076   
  1587. BD*(   1) C  47 - C  48          0.02512     0.51617   
  1588. BD*(   2) C  47 - C  48          0.36662     0.01289  1579(r),1593(v),1598(v)
                                                    1577(r),1072(g),1552(r)
                                                    1571(v),1545(r),1547(r)
  1589. BD*(   1) C  47 - C  52          0.02390     0.50962   
  1590. BD*(   1) C  48 - C  49          0.01572     0.53174   
  1591. BD*(   1) C  48 - H  66          0.01732     0.40874   
  1592. BD*(   1) C  49 - C  50          0.01466     0.52961   
  1593. BD*(   2) C  49 - C  50          0.32261     0.01660  1588(v),1598(v),1552(r)
                                                    1098(g),1124(g)
  1594. BD*(   1) C  49 - H  67          0.01355     0.39435   
  1595. BD*(   1) C  50 - C  51          0.01490     0.52626   
  1596. BD*(   1) C  50 - H  68          0.01321     0.39526   
  1597. BD*(   1) C  51 - C  52          0.01606     0.53760   
  1598. BD*(   2) C  51 - C  52          0.30323     0.02212  1593(v),1588(v),1559(r)
                                                    1150(g),1547(r),1545(r)
  1599. BD*(   1) C  51 - H  69          0.01366     0.39580   
  1600. BD*(   1) C  52 - H  70          0.01579     0.40395   
  1601. BD*(   1) C  53 - C  54          0.02323     0.51248   
  1602. BD*(   1) C  53 - C  58          0.02688     0.52905   
  1603. BD*(   2) C  53 - C  58          0.36556     0.02404  1609(v),1605(v),1572(v)
                                                    1332(g),1331(g)
  1604. BD*(   1) C  54 - C  56          0.01605     0.54414   
  1605. BD*(   2) C  54 - C  56          0.31460     0.02828  1609(v),1603(v),1280(g)
  1606. BD*(   1) C  54 - H  64          0.01497     0.40625   
  1607. BD*(   1) C  55 - C  56          0.01438     0.53467   
  1608. BD*(   1) C  55 - C  57          0.01423     0.53709   
  1609. BD*(   2) C  55 - C  57          0.32152     0.02623  1603(v),1605(v),1254(g)
                                                    1306(g)
  1610. BD*(   1) C  55 - H  72          0.01285     0.40394   
  1611. BD*(   1) C  56 - H  73          0.01324     0.40178   
  1612. BD*(   1) C  57 - C  58          0.01528     0.53949   
  1613. BD*(   1) C  57 - H  71          0.01309     0.40193   
  1614. BD*(   1) C  58 - H  65          0.01584     0.40786   
  1615. BD*(   1)Pd  75 -Cl  76          0.17420     0.19294  1616(g),1572(v),1574(g)
                                                    1571(v),1445(g),1452(g)
                                                    173(g),1448(g),860(v)
                                                    1573(v),1446(g),1454(g)
                                                    1444(g),1440(g),1443(g)
                                                    180(v),1453(g),862(v)
                                                    1461(g),209(r),871(v),889(r)
                                                    1491(v),1450(g),181(v)
                                                    1045(r),1463(g),1517(v)
                                                    190(v),868(v),867(v),469(r)
                                                    187(v),1019(r),189(v),626(r)
                                                    1439(g),1459(g),1488(v)
                                                    1458(g),191(v)
  1616. BD*(   1)Pd  75 -Cl  77          0.17011     0.18836  1615(g),1518(g),1448(g)
                                                    1517(v),180(v),1442(g)
                                                    1446(g),1443(g),1452(g)
                                                    1451(g),1454(g),1445(g)
                                                    860(v),1572(v),1444(g)
                                                    1516(v),1449(g),1440(g)
                                                    889(r),173(g),469(r),1489(g)
                                                    1455(g),1491(g),1447(g)
                                                    190(v),1463(v),191(v),189(v)
                                                    182(v),208(r),209(r),1436(g)
                                                    339(r),871(v),861(v),1460(v)
                                                    188(v),1458(g),346(r)
       -------------------------------
              Total Lewis  374.70321  ( 97.5790%)
        Valence non-Lewis    8.63115  (  2.2477%)
        Rydberg non-Lewis    0.66564  (  0.1733%)
       -------------------------------
            Total unit  1  384.00000  (100.0000%)
           Charge unit  1    0.00000
 1\1\GINC-NC061\SP\RPBE1PBE\Gen\C39H32Cl2O1P2Pd1\MACKK4\06-Dec-2021\0\\
 # PBE1PBE gen pseudo=read int=(grid=ultrafine) empiricaldispersion=GD3
 BJ pop=nbo guess=read geom=check\\XantPhos_4 title\\0,1\P,0,-1.5206408
 158,1.6502749746,-3.5842421286\C,0,-2.074826096,2.1770095467,-1.895081
 6509\C,0,-3.4322727012,2.4111183148,-1.5853797746\C,0,-3.8291236995,2.
 6425136621,-0.2626929331\C,0,-2.8859482041,2.6495712113,0.7789754212\C
 ,0,-1.5213820951,2.4764035702,0.5079630714\C,0,-1.15525806,2.271389941
 8,-0.834888851\O,0,0.1843020362,2.1372509519,-1.1336933083\C,0,-0.3790
 502385,2.5224495384,1.5384661051\C,0,-0.8877367038,2.2959569995,2.9696
 620545\C,0,0.3030796228,3.9185610478,1.4529401271\C,0,-2.1478464108,-0
 .0686052265,-3.7856687333\C,0,-3.2909221393,-0.5626545902,-3.131164668
 4\C,0,-3.7728103978,-1.8424543991,-3.4328461564\C,0,-3.122101332,-2.63
 48067937,-4.3897426123\C,0,-1.9802706201,-2.1487389737,-5.0417092228\C
 ,0,-1.4905234632,-0.8729627263,-4.736800439\C,0,-2.6825795215,2.588519
 3868,-4.6603132146\C,0,-2.8781140795,3.9669855553,-4.4342852187\C,0,-4
 .449070022,4.052752746,-6.2862499982\C,0,-3.7654260753,4.6890888958,-5
 .2392372734\C,0,-4.2457585278,2.6872714483,-6.5226123622\C,0,-3.368125
 2904,1.9536585301,-5.7118559525\H,0,-4.1735681638,2.4087697906,-2.3904
 015732\H,0,-3.2234839899,2.8087595944,1.8072783471\H,0,-4.8861460262,2
 .8133995287,-0.0370047554\H,0,-1.3851431788,1.31737024,3.0792456091\H,
 0,-1.6010361669,3.0861948461,3.2557346871\H,0,0.6848994519,4.118457223
 7,0.4392069981\H,0,-0.4214846369,4.7084567379,1.7149553156\H,0,-2.3308
 850146,4.4713598533,-3.6341880485\H,0,-5.1367877677,4.6232466556,-6.91
 90153813\H,0,-4.7745127666,2.1835981387,-7.3383724947\H,0,-3.224385567
 6,0.8855666829,-5.8978300548\H,0,-3.8009431821,0.0474531506,-2.3800522
 8\H,0,-4.6606547747,-2.2228987031,-2.916727442\H,0,-3.4996819217,-3.63
 61536116,-4.6205395399\H,0,-1.4575739584,-2.7701358073,-5.7753377974\H
 ,0,-0.5891811748,-0.4870779882,-5.2273292805\P,0,1.6489358451,0.075536
 4079,-2.6518001677\C,0,1.7451506276,0.3660665661,-0.8277325051\C,0,2.3
 971589535,-0.5098395904,0.0653470861\C,0,2.2113485069,-0.3821277556,1.
 4467772993\C,0,1.3321016205,0.5818716105,1.9680661382\C,0,0.6426304261
 ,1.4538192053,1.1141786013\C,0,0.8938374557,1.3309281122,-0.2638509105
 \C,0,0.8202651959,-1.5859731356,-2.5835037314\C,0,1.2825503671,-2.6920
 370746,-3.3210193905\C,0,0.6325325658,-3.930621012,-3.222029805\C,0,-0
 .4845153821,-4.079447077,-2.3912138504\C,0,-0.9523117567,-2.9806580108
 ,-1.6549780367\C,0,-0.3062165702,-1.7447617172,-1.7495588947\C,0,3.314
 83906,-0.3436652588,-3.2963755242\C,0,3.4007418853,-0.5920867001,-4.68
 21837183\C,0,5.7753778831,-1.0456013055,-4.4666952609\C,0,4.6226411371
 ,-0.9516377556,-5.2605387599\C,0,5.6996087508,-0.7656775706,-3.0962948
 273\C,0,4.4757611805,-0.4161390975,-2.5091696622\H,0,3.0112438627,-1.3
 260474166,-0.3251127119\H,0,1.1710886476,0.6324675188,3.048784559\H,0,
 2.7291510319,-1.0654961248,2.1266297169\H,0,-0.0529301775,2.3475575076
 ,3.6877409868\H,0,1.1502025466,3.9664370117,2.1582560965\H,0,2.5140252
 629,-0.4625156394,-5.3129760186\H,0,4.4419280676,-0.154946276,-1.44928
 98347\H,0,2.1657350729,-2.5957637883,-3.9580302054\H,0,1.0120371706,-4
 .7844306838,-3.7933255559\H,0,-0.9896486241,-5.0477618039,-2.314231070
 7\H,0,-1.8280035637,-3.0838950998,-1.0066271722\H,0,-0.6761788965,-0.8
 999408102,-1.1595097076\H,0,6.6017890098,-0.803163136,-2.4770781641\H,
 0,6.734467281,-1.3140822202,-4.9208470277\H,0,4.6784406891,-1.13413538
 87,-6.3384753901\H,0,-3.9107968232,5.7584786266,-5.055989461\Pd,0,0.77
 20015775,1.9453435697,-3.7766134842\Cl,0,3.0224106424,2.7017461217,-3.
 5451867581\Cl,0,0.2797731437,3.9434792466,-4.9365074674\\Version=ES64L
 -G09RevE.01\State=1-A\HF=-3310.0569636\RMSD=3.456e-09\Dipole=-2.391197
 9,-3.307067,2.4455775\Quadrupole=2.6435381,-9.5460372,6.9024991,-15.88
 91807,3.8771545,17.1112727\PG=C01 [X(C39H32Cl2O1P2Pd1)]\\@


 THE DIFFICULTY IN SCIENCE IS OFTEN NOT SO MUCH HOW
 TO MAKE A DISCOVERY BUT RATHER TO KNOW ONE HAS MADE IT.

                                                   -- J. D. BERNAL
 Job cpu time:       0 days  2 hours 27 minutes 51.2 seconds.
 File lengths (MBytes):  RWF=   1339 Int=      0 D2E=      0 Chk=    192 Scr=      1
 Normal termination of Gaussian 09 at Mon Dec  6 04:51:53 2021.
