 Entering Gaussian System, Link 0=g09
 Input=XantPhos_5_SPE.com
 Output=XantPhos_5_SPE.log
 Initial command:
 /gstore/apps/gaussian/g09.e01-foss-2017a/g09/l1.exe "/local/22791537/Gau-13712.inp" -scrdir="/local/22791537/"
 Entering Link 1 = /gstore/apps/gaussian/g09.e01-foss-2017a/g09/l1.exe PID=     13713.
  
 Copyright (c) 1988,1990,1992,1993,1995,1998,2003,2009,2015,
            Gaussian, Inc.  All Rights Reserved.
  
 This is part of the Gaussian(R) 09 program.  It is based on
 the Gaussian(R) 03 system (copyright 2003, Gaussian, Inc.),
 the Gaussian(R) 98 system (copyright 1998, Gaussian, Inc.),
 the Gaussian(R) 94 system (copyright 1995, Gaussian, Inc.),
 the Gaussian 92(TM) system (copyright 1992, Gaussian, Inc.),
 the Gaussian 90(TM) system (copyright 1990, Gaussian, Inc.),
 the Gaussian 88(TM) system (copyright 1988, Gaussian, Inc.),
 the Gaussian 86(TM) system (copyright 1986, Carnegie Mellon
 University), and the Gaussian 82(TM) system (copyright 1983,
 Carnegie Mellon University). Gaussian is a federally registered
 trademark of Gaussian, Inc.
  
 This software contains proprietary and confidential information,
 including trade secrets, belonging to Gaussian, Inc.
  
 This software is provided under written license and may be
 used, copied, transmitted, or stored only in accord with that
 written license.
  
 The following legend is applicable only to US Government
 contracts under FAR:
  
                    RESTRICTED RIGHTS LEGEND
  
 Use, reproduction and disclosure by the US Government is
 subject to restrictions as set forth in subparagraphs (a)
 and (c) of the Commercial Computer Software - Restricted
 Rights clause in FAR 52.227-19.
  
 Gaussian, Inc.
 340 Quinnipiac St., Bldg. 40, Wallingford CT 06492
  
  
 ---------------------------------------------------------------
 Warning -- This program may not be used in any manner that
 competes with the business of Gaussian, Inc. or will provide
 assistance to any competitor of Gaussian, Inc.  The licensee
 of this program is prohibited from giving any competitor of
 Gaussian, Inc. access to this program.  By using this program,
 the user acknowledges that Gaussian, Inc. is engaged in the
 business of creating and licensing software in the field of
 computational chemistry and represents and warrants to the
 licensee that it is not a competitor of Gaussian, Inc. and that
 it will not use this program in any manner prohibited above.
 ---------------------------------------------------------------
  

 Cite this work as:
 Gaussian 09, Revision E.01,
 M. J. Frisch, G. W. Trucks, H. B. Schlegel, G. E. Scuseria, 
 M. A. Robb, J. R. Cheeseman, G. Scalmani, V. Barone, B. Mennucci, 
 G. A. Petersson, H. Nakatsuji, M. Caricato, X. Li, H. P. Hratchian, 
 A. F. Izmaylov, J. Bloino, G. Zheng, J. L. Sonnenberg, M. Hada, 
 M. Ehara, K. Toyota, R. Fukuda, J. Hasegawa, M. Ishida, T. Nakajima, 
 Y. Honda, O. Kitao, H. Nakai, T. Vreven, J. A. Montgomery, Jr., 
 J. E. Peralta, F. Ogliaro, M. Bearpark, J. J. Heyd, E. Brothers, 
 K. N. Kudin, V. N. Staroverov, T. Keith, R. Kobayashi, J. Normand, 
 K. Raghavachari, A. Rendell, J. C. Burant, S. S. Iyengar, J. Tomasi, 
 M. Cossi, N. Rega, J. M. Millam, M. Klene, J. E. Knox, J. B. Cross, 
 V. Bakken, C. Adamo, J. Jaramillo, R. Gomperts, R. E. Stratmann, 
 O. Yazyev, A. J. Austin, R. Cammi, C. Pomelli, J. W. Ochterski, 
 R. L. Martin, K. Morokuma, V. G. Zakrzewski, G. A. Voth, 
 P. Salvador, J. J. Dannenberg, S. Dapprich, A. D. Daniels, 
 O. Farkas, J. B. Foresman, J. V. Ortiz, J. Cioslowski, 
 and D. J. Fox, Gaussian, Inc., Wallingford CT, 2013.
 
 ******************************************
 Gaussian 09:  ES64L-G09RevE.01 30-Nov-2015
                 6-Dec-2021 
 ******************************************
 %nprocs=14
 Will use up to   14 processors via shared memory.
 %mem=128GB
 %chk=XantPhos_5_SPE.chk
 ----------------------------------------------------------------------
 # PBE1PBE gen pseudo=read int=(grid=ultrafine) empiricaldispersion=GD3
 BJ nmr=giao
 ----------------------------------------------------------------------
 1/38=1/1;
 2/12=2,17=6,18=5,40=1/2;
 3/5=7,11=2,16=1,17=8,25=1,30=1,74=-13,75=-5,124=41/1,2,8,3;
 4//1;
 5/5=2,38=5/2;
 8/6=1,10=90,11=11/1;
 10/13=100,45=16/2;
 6/7=2,8=2,9=2,10=2,28=1/1;
 99/9=1/99;
 ----------------
 XantPhos_5 title
 ----------------
 Symbolic Z-matrix:
 Charge =  0 Multiplicity = 1
 P                    -1.46206   1.49441  -3.66951 
 C                    -2.07365   1.65876  -1.9221 
 C                    -3.43533   1.52344  -1.5786 
 C                    -3.83783   1.62083  -0.24041 
 C                    -2.90605   1.89204   0.77803 
 C                    -1.55307   2.1002    0.47337 
 C                    -1.18842   1.97772  -0.88003 
 O                     0.1265    2.18048  -1.22252 
 C                    -0.44708   2.5218    1.46523 
 C                    -0.8206    2.18003   2.91557 
 C                    -0.24417   4.05842   1.33221 
 C                    -1.89401  -0.19389  -4.24784 
 C                    -2.78771  -1.06152  -3.599 
 C                    -3.14165  -2.2769   -4.20115 
 C                    -2.61426  -2.6291   -5.45117 
 C                    -1.70777  -1.77231  -6.09411 
 C                    -1.34025  -0.56273  -5.49266 
 C                    -2.72986   2.53608  -4.50792 
 C                    -3.66909   1.99639  -5.40351 
 C                    -4.71709   4.17849  -5.62537 
 C                    -4.65935   2.82057  -5.96034 
 C                    -3.77733   4.71891  -4.73327 
 C                    -2.78354   3.90649  -4.18046 
 H                    -4.17596   1.34811  -2.36538 
 H                    -3.25248   1.96558   1.81324 
 H                    -4.89463   1.49759   0.01529 
 H                    -0.97726   1.09673   3.05259 
 H                    -1.74042   2.70889   3.21481 
 H                     0.03616   4.33634   0.30356 
 H                    -1.17517   4.58857   1.59663 
 H                    -3.63401   0.93625  -5.66839 
 H                    -5.48982   4.81939  -6.06238 
 H                    -3.80813   5.7831   -4.47878 
 H                    -2.03519   4.33664  -3.50902 
 H                    -3.19343  -0.80114  -2.61777 
 H                    -3.83018  -2.95395  -3.68493 
 H                    -2.90093  -3.57614  -5.91997 
 H                    -1.28219  -2.04691  -7.06477 
 H                    -0.62608   0.11013  -5.98279 
 P                     1.71913   0.30673  -2.63289 
 C                     2.07729   0.88738  -0.91523 
 C                     3.0804    0.41523  -0.05226 
 C                     2.97641   0.65146   1.32738 
 C                     1.85506   1.30114   1.87242 
 C                     0.8544    1.821     1.03432 
 C                     1.05223   1.656    -0.34244 
 C                     0.65623  -1.16992  -2.25927 
 C                    -0.0561   -1.32887  -1.05639 
 C                    -0.83234  -2.47694  -0.83817 
 C                    -0.9      -3.48013  -1.81204 
 C                    -0.19977  -3.3244   -3.01801 
 C                     0.56538  -2.17674  -3.24455 
 C                     3.21601  -0.55523  -3.2668 
 C                     3.70396  -1.6884   -2.57908 
 C                     5.43044  -1.97563  -4.26165 
 C                     4.81532  -2.38472  -3.06908 
 C                     4.92888  -0.87061  -4.96232 
 C                     3.82736  -0.15722  -4.4694 
 H                     3.92137  -0.1574   -0.45301 
 H                     1.76639   1.39653   2.95866 
 H                     3.76169   0.28519   1.9957 
 H                    -0.02685   2.50876   3.60614 
 H                     0.5596    4.39183   2.01063 
 H                     3.19883  -2.04188  -1.67455 
 H                     3.45188   0.72311  -4.99717 
 H                     0.00877  -0.57479  -0.26791 
 H                    -1.37353  -2.58771   0.10741 
 H                    -1.49862  -4.37988  -1.63618 
 H                    -0.25735  -4.09557  -3.79223 
 H                     1.11075  -2.0672   -4.18676 
 H                     5.39767  -0.55314  -5.8992 
 H                     6.29493  -2.52544  -4.64813 
 H                     5.19229  -3.25632  -2.52397 
 H                    -5.38622   2.39287  -6.65868 
 Pd                    0.79533   2.01303  -3.9194 
 Cl                    3.00921   2.89521  -3.7118 
 Cl                    0.20295   3.76159  -5.39359 
 
 Stoichiometry    C39H32Cl2OP2Pd
 Framework group  C1[X(C39H32Cl2OP2Pd)]
 Deg. of freedom   225
 Full point group                 C1      NOp   1
 Largest Abelian subgroup         C1      NOp   1
 Largest concise Abelian subgroup C1      NOp   1
                         Standard orientation:                         
 ---------------------------------------------------------------------
 Center     Atomic      Atomic             Coordinates (Angstroms)
 Number     Number       Type             X           Y           Z
 ---------------------------------------------------------------------
      1         15           0       -1.730120   -0.539022   -0.050773
      2          6           0       -1.870345    1.199706    0.590849
      3          6           0       -2.913298    1.610914    1.447364
      4          6           0       -2.951509    2.924972    1.931141
      5          6           0       -1.980185    3.866861    1.545963
      6          6           0       -0.964411    3.519323    0.643668
      7          6           0       -0.952996    2.185965    0.194571
      8          8           0        0.021777    1.805540   -0.695671
      9          6           0        0.090413    4.473788    0.042747
     10          6           0        0.287018    5.726141    0.910366
     11          6           0       -0.397019    4.896976   -1.372659
     12          6           0       -1.568289   -1.650764    1.401547
     13          6           0       -1.822013   -1.277582    2.731525
     14          6           0       -1.792084   -2.244928    3.745602
     15          6           0       -1.517167   -3.584889    3.439568
     16          6           0       -1.246278   -3.957982    2.114201
     17          6           0       -1.262154   -2.994862    1.098300
     18          6           0       -3.485205   -0.794298   -0.550619
     19          6           0       -4.320620   -1.721122    0.096356
     20          6           0       -6.188260   -1.009257   -1.287211
     21          6           0       -5.669941   -1.826105   -0.275490
     22          6           0       -5.353595   -0.085436   -1.936018
     23          6           0       -4.007079    0.019803   -1.576783
     24          1           0       -3.695853    0.898104    1.726307
     25          1           0       -2.039616    4.886441    1.938389
     26          1           0       -3.756358    3.227336    2.608033
     27          1           0        0.630182    5.469159    1.926762
     28          1           0       -0.653869    6.295023    0.990313
     29          1           0       -0.537555    4.020236   -2.024977
     30          1           0       -1.357393    5.435376   -1.298197
     31          1           0       -3.925592   -2.360895    0.890034
     32          1           0       -7.240913   -1.094305   -1.576214
     33          1           0       -5.749300    0.545783   -2.738012
     34          1           0       -3.352615    0.719411   -2.104150
     35          1           0       -2.024005   -0.232572    2.981240
     36          1           0       -1.979726   -1.945519    4.781995
     37          1           0       -1.503239   -4.337137    4.235040
     38          1           0       -1.018329   -5.000592    1.869848
     39          1           0       -1.043527   -3.274445    0.060498
     40         15           0        1.807905   -0.357056   -0.284008
     41          6           0        2.336097    1.405356   -0.459253
     42          6           0        3.633205    1.921633   -0.301697
     43          6           0        3.809731    3.293650   -0.064162
     44          6           0        2.708230    4.155416    0.079482
     45          6           0        1.400272    3.679463   -0.112085
     46          6           0        1.277275    2.326479   -0.452873
     47          6           0        1.583302   -0.444991    1.557642
     48          6           0        1.343848    0.682239    2.364861
     49          6           0        1.193942    0.541854    3.752683
     50          6           0        1.288816   -0.720612    4.349818
     51          6           0        1.518212   -1.850609    3.550180
     52          6           0        1.656403   -1.716876    2.165651
     53          6           0        3.300839   -1.418993   -0.454037
     54          6           0        4.372650   -1.254138    0.451048
     55          6           0        5.553878   -3.096305   -0.600332
     56          6           0        5.499067   -2.081247    0.366417
     57          6           0        4.478292   -3.282077   -1.479073
     58          6           0        3.354243   -2.447005   -1.412548
     59          1           0        4.496391    1.251196   -0.335971
     60          1           0        2.878399    5.202921    0.345313
     61          1           0        4.821886    3.692365    0.054357
     62          1           0        1.027726    6.401156    0.451337
     63          1           0        0.347307    5.561444   -1.843750
     64          1           0        4.315091   -0.496111    1.238681
     65          1           0        2.526435   -2.569454   -2.115571
     66          1           0        1.299655    1.681846    1.925092
     67          1           0        1.016288    1.431221    4.366471
     68          1           0        1.181100   -0.827201    5.434185
     69          1           0        1.579526   -2.844128    4.004715
     70          1           0        1.839099   -2.604031    1.551829
     71          1           0        4.510329   -4.079421   -2.228411
     72          1           0        6.432010   -3.747629   -0.660837
     73          1           0        6.329175   -1.939727    1.066293
     74          1           0       -6.313741   -2.551923    0.232104
     75         46           0       -0.037331   -0.816999   -1.626973
     76         17           0        1.589269   -0.533731   -3.358024
     77         17           0       -1.660000   -1.469675   -3.215223
 ---------------------------------------------------------------------
 Rotational constants (GHZ):      0.0765975      0.0641010      0.0558960
 General basis read from cards:  (5D, 7F)
 ======================================================================================================
                                       Pseudopotential Parameters
 ======================================================================================================
  Center     Atomic      Valence      Angular      Power
  Number     Number     Electrons     Momentum     of R      Exponent        Coefficient   SO-Coeffient
 ======================================================================================================
    1         15
                                   No pseudopotential on this center.
    2          6
                                   No pseudopotential on this center.
    3          6
                                   No pseudopotential on this center.
    4          6
                                   No pseudopotential on this center.
    5          6
                                   No pseudopotential on this center.
    6          6
                                   No pseudopotential on this center.
    7          6
                                   No pseudopotential on this center.
    8          8
                                   No pseudopotential on this center.
    9          6
                                   No pseudopotential on this center.
   10          6
                                   No pseudopotential on this center.
   11          6
                                   No pseudopotential on this center.
   12          6
                                   No pseudopotential on this center.
   13          6
                                   No pseudopotential on this center.
   14          6
                                   No pseudopotential on this center.
   15          6
                                   No pseudopotential on this center.
   16          6
                                   No pseudopotential on this center.
   17          6
                                   No pseudopotential on this center.
   18          6
                                   No pseudopotential on this center.
   19          6
                                   No pseudopotential on this center.
   20          6
                                   No pseudopotential on this center.
   21          6
                                   No pseudopotential on this center.
   22          6
                                   No pseudopotential on this center.
   23          6
                                   No pseudopotential on this center.
   24          1
                                   No pseudopotential on this center.
   25          1
                                   No pseudopotential on this center.
   26          1
                                   No pseudopotential on this center.
   27          1
                                   No pseudopotential on this center.
   28          1
                                   No pseudopotential on this center.
   29          1
                                   No pseudopotential on this center.
   30          1
                                   No pseudopotential on this center.
   31          1
                                   No pseudopotential on this center.
   32          1
                                   No pseudopotential on this center.
   33          1
                                   No pseudopotential on this center.
   34          1
                                   No pseudopotential on this center.
   35          1
                                   No pseudopotential on this center.
   36          1
                                   No pseudopotential on this center.
   37          1
                                   No pseudopotential on this center.
   38          1
                                   No pseudopotential on this center.
   39          1
                                   No pseudopotential on this center.
   40         15
                                   No pseudopotential on this center.
   41          6
                                   No pseudopotential on this center.
   42          6
                                   No pseudopotential on this center.
   43          6
                                   No pseudopotential on this center.
   44          6
                                   No pseudopotential on this center.
   45          6
                                   No pseudopotential on this center.
   46          6
                                   No pseudopotential on this center.
   47          6
                                   No pseudopotential on this center.
   48          6
                                   No pseudopotential on this center.
   49          6
                                   No pseudopotential on this center.
   50          6
                                   No pseudopotential on this center.
   51          6
                                   No pseudopotential on this center.
   52          6
                                   No pseudopotential on this center.
   53          6
                                   No pseudopotential on this center.
   54          6
                                   No pseudopotential on this center.
   55          6
                                   No pseudopotential on this center.
   56          6
                                   No pseudopotential on this center.
   57          6
                                   No pseudopotential on this center.
   58          6
                                   No pseudopotential on this center.
   59          1
                                   No pseudopotential on this center.
   60          1
                                   No pseudopotential on this center.
   61          1
                                   No pseudopotential on this center.
   62          1
                                   No pseudopotential on this center.
   63          1
                                   No pseudopotential on this center.
   64          1
                                   No pseudopotential on this center.
   65          1
                                   No pseudopotential on this center.
   66          1
                                   No pseudopotential on this center.
   67          1
                                   No pseudopotential on this center.
   68          1
                                   No pseudopotential on this center.
   69          1
                                   No pseudopotential on this center.
   70          1
                                   No pseudopotential on this center.
   71          1
                                   No pseudopotential on this center.
   72          1
                                   No pseudopotential on this center.
   73          1
                                   No pseudopotential on this center.
   74          1
                                   No pseudopotential on this center.
   75         46           18
                                      G and up 
                                                     2        1.0000000        0.00000000    0.00000000
                                      S - G
                                                     2       12.4300000      240.22904000    0.00000000
                                                     2        6.1707590       35.17194300    0.00000000
                                      P - G
                                                     2       11.0800000      170.41727600    0.00000000
                                                     2        5.8295540       28.47213300    0.00000000
                                      D - G
                                                     2        9.5100000       69.01384500    0.00000000
                                                     2        4.1397810       11.75086200    0.00000000
                                      F - G
                                                     2       13.2700000      -31.92955400    0.00000000
                                                     2        6.6300000       -5.39821700    0.00000000
   76         17
                                   No pseudopotential on this center.
   77         17
                                   No pseudopotential on this center.
 ======================================================================================================
 There are  1839 symmetry adapted cartesian basis functions of A   symmetry.
 There are  1616 symmetry adapted basis functions of A   symmetry.
  1616 basis functions,  2637 primitive gaussians,  1839 cartesian basis functions
   178 alpha electrons      178 beta electrons
       nuclear repulsion energy      7196.0812457257 Hartrees.
 NAtoms=   77 NActive=   77 NUniq=   77 SFac= 1.00D+00 NAtFMM=   60 NAOKFM=T Big=T
 Integral buffers will be    131072 words long.
 Raffenetti 2 integral format.
 Two-electron integral symmetry is turned on.
 Nuclear repulsion after empirical dispersion term =     7195.9321562341 Hartrees.
 One-electron integrals computed using PRISM.
   1 Symmetry operations used in ECPInt.
 ECPInt:  NShTT=  201295 NPrTT=  630012 LenC2=  161715 LenP2D=  334424.
 LDataN:  DoStor=T MaxTD1= 7 Len=  274
 NBasis=  1616 RedAO= T EigKep=  3.70D-06  NBF=  1616
 NBsUse=  1616 1.00D-06 EigRej= -1.00D+00 NBFU=  1616
 Defaulting to unpruned grid for atomic number  46.
 ExpMin= 1.60D-02 ExpMax= 6.95D+04 ExpMxC= 2.37D+03 IAcc=3 IRadAn=         5 AccDes= 0.00D+00
 Harris functional with IExCor= 1009 and IRadAn=       5 diagonalized for initial guess.
 HarFok:  IExCor= 1009 AccDes= 0.00D+00 IRadAn=         5 IDoV= 1 UseB2=F ITyADJ=14
 ICtDFT=  3500011 ScaDFX=  1.000000  1.000000  1.000000  1.000000
 Defaulting to unpruned grid for atomic number  46.
 Defaulting to unpruned grid for atomic number  46.
 Defaulting to unpruned grid for atomic number  46.
 Defaulting to unpruned grid for atomic number  46.
 Defaulting to unpruned grid for atomic number  46.
 Defaulting to unpruned grid for atomic number  46.
 Defaulting to unpruned grid for atomic number  46.
 Defaulting to unpruned grid for atomic number  46.
 Defaulting to unpruned grid for atomic number  46.
 Defaulting to unpruned grid for atomic number  46.
 Defaulting to unpruned grid for atomic number  46.
 Defaulting to unpruned grid for atomic number  46.
 Defaulting to unpruned grid for atomic number  46.
 Defaulting to unpruned grid for atomic number  46.
 FoFCou: FMM=F IPFlag=           0 FMFlag=      100000 FMFlg1=        2001
         NFxFlg=           0 DoJE=T BraDBF=F KetDBF=T FulRan=T
         wScrn=  0.000000 ICntrl=     500 IOpCl=  0 I1Cent=   200000004 NGrid=           0
         NMat0=    1 NMatS0=      1 NMatT0=    0 NMatD0=    1 NMtDS0=    0 NMtDT0=    0
 Petite list used in FoFCou.
 Requested convergence on RMS density matrix=1.00D-08 within 128 cycles.
 Requested convergence on MAX density matrix=1.00D-06.
 Requested convergence on             energy=1.00D-06.
 No special actions if energy rises.
 Defaulting to unpruned grid for atomic number  46.
 Defaulting to unpruned grid for atomic number  46.
 Defaulting to unpruned grid for atomic number  46.
 Defaulting to unpruned grid for atomic number  46.
 Defaulting to unpruned grid for atomic number  46.
 Defaulting to unpruned grid for atomic number  46.
 Defaulting to unpruned grid for atomic number  46.
 Defaulting to unpruned grid for atomic number  46.
 Defaulting to unpruned grid for atomic number  46.
 Defaulting to unpruned grid for atomic number  46.
 Defaulting to unpruned grid for atomic number  46.
 Defaulting to unpruned grid for atomic number  46.
 Defaulting to unpruned grid for atomic number  46.
 Defaulting to unpruned grid for atomic number  46.
 EnCoef did     6 forward-backward iterations
 EnCoef did   100 forward-backward iterations
 EnCoef did     2 forward-backward iterations
 EnCoef did     2 forward-backward iterations
 Restarting incremental Fock formation.
 SCF Done:  E(RPBE1PBE) =  -3310.06347341     A.U. after   24 cycles
            NFock= 24  Conv=0.95D-08     -V/T= 2.0287
 DoSCS=F DFT=T ScalE2(SS,OS)=  1.000000  1.000000
 Range of M.O.s used for correlation:     1  1616
 NBasis=  1616 NAE=   178 NBE=   178 NFC=     0 NFV=     0
 NROrb=   1616 NOA=   178 NOB=   178 NVA=  1438 NVB=  1438

 **** Warning!!: The largest alpha MO coefficient is  0.46536466D+02

          Differentiating once with respect to magnetic field using GIAOs.
          Electric field/nuclear overlap derivatives assumed to be zero.
 Defaulting to unpruned grid for atomic number  46.
 FoFCou: FMM=F IPFlag=           0 FMFlag=      100000 FMFlg1=        2001
         NFxFlg=           0 DoJE=F BraDBF=F KetDBF=T FulRan=T
         wScrn=  0.000000 ICntrl=    6100 IOpCl=  0 I1Cent=           7 NGrid=          77
         NMat0=    1 NMatS0=      1 NMatT0=    0 NMatD0=    1 NMtDS0=    0 NMtDT0=    0
 Symmetry not used in FoFCou.
   1 Symmetry operations used in ECPInt.
 ECPInt:  NShTT=  201295 NPrTT=  630012 LenC2=  201296 LenP2D=  630012.
 LDataN:  DoStor=T MaxTD1= 8 Len=  415
 FoFJK:  IHMeth= 1 ICntrl=    6127 DoSepK=F KAlg= 0 I1Cent=   0 FoldK=F
 IRaf=         1 NMat=   1 IRICut=       1 DoRegI=T DoRafI=F ISym2E= 0.
 Defaulting to unpruned grid for atomic number  46.
 Defaulting to unpruned grid for atomic number  46.
 Defaulting to unpruned grid for atomic number  46.
 Defaulting to unpruned grid for atomic number  46.
 Defaulting to unpruned grid for atomic number  46.
 Defaulting to unpruned grid for atomic number  46.
 Defaulting to unpruned grid for atomic number  46.
 Defaulting to unpruned grid for atomic number  46.
 Defaulting to unpruned grid for atomic number  46.
 Defaulting to unpruned grid for atomic number  46.
 Defaulting to unpruned grid for atomic number  46.
 Defaulting to unpruned grid for atomic number  46.
 Defaulting to unpruned grid for atomic number  46.
 Defaulting to unpruned grid for atomic number  46.
          There are     3 degrees of freedom in the 1st order CPHF.  IDoFFX=0 NUNeed=     3.
      3 vectors produced by pass  0 Test12= 8.53D-12 3.33D-08 XBig12= 2.12D+02 1.74D+00.
 AX will form     3 AO Fock derivatives at one time.
      3 vectors produced by pass  1 Test12= 8.53D-12 3.33D-08 XBig12= 1.07D+00 1.88D-01.
      3 vectors produced by pass  2 Test12= 8.53D-12 3.33D-08 XBig12= 1.05D-02 4.65D-02.
      3 vectors produced by pass  3 Test12= 8.53D-12 3.33D-08 XBig12= 3.05D-04 7.57D-03.
      3 vectors produced by pass  4 Test12= 8.53D-12 3.33D-08 XBig12= 1.82D-06 3.60D-04.
      3 vectors produced by pass  5 Test12= 8.53D-12 3.33D-08 XBig12= 1.74D-08 4.39D-05.
      3 vectors produced by pass  6 Test12= 8.53D-12 3.33D-08 XBig12= 1.99D-10 4.90D-06.
      3 vectors produced by pass  7 Test12= 8.53D-12 3.33D-08 XBig12= 1.90D-12 5.25D-07.
 InvSVY:  IOpt=1 It=  1 EMax= 3.55D-15
 Solved reduced A of dimension    24 with     3 vectors.
 Calculating GIAO nuclear magnetic shielding tensors.
 SCF GIAO Magnetic shielding tensor (ppm):
      1  P    Isotropic =   248.6482   Anisotropy =   109.7195
   XX=   268.1805   YX=   -16.2453   ZX=   -30.1947
   XY=    14.3128   YY=   180.7610   ZY=    23.9994
   XZ=   -40.0700   YZ=     6.3300   ZZ=   297.0030
   Eigenvalues:   178.6597   245.4903   321.7945
      2  C    Isotropic =    58.1629   Anisotropy =   150.7237
   XX=    78.8762   YX=   -11.1042   ZX=    55.2264
   XY=   -15.4900   YY=    -2.6523   ZY=   -36.4616
   XZ=    67.2773   YZ=   -35.2766   ZZ=    98.2649
   Eigenvalues:   -14.6726    30.5160   158.6454
      3  C    Isotropic =    43.0578   Anisotropy =   191.8193
   XX=    16.5157   YX=   -54.7357   ZX=    87.5120
   XY=   -57.0307   YY=    -0.5236   ZY=   -18.5260
   XZ=    76.6010   YZ=   -14.6137   ZZ=   113.1813
   Eigenvalues:   -61.2111    19.4472   170.9373
      4  C    Isotropic =    57.1223   Anisotropy =   175.3123
   XX=    35.1536   YX=    -2.5666   ZX=    99.6221
   XY=    -0.8433   YY=    51.4952   ZY=   -41.5164
   XZ=   103.0887   YZ=   -42.5441   ZZ=    84.7183
   Eigenvalues:   -50.6657    48.0355   173.9972
      5  C    Isotropic =    52.6349   Anisotropy =   181.8434
   XX=    84.8787   YX=   -18.1817   ZX=    62.1578
   XY=   -18.2567   YY=   -30.5478   ZY=   -55.9092
   XZ=    71.0667   YZ=   -44.8611   ZZ=   103.5738
   Eigenvalues:   -47.5063    31.5471   173.8638
      6  C    Isotropic =    43.6459   Anisotropy =   170.3384
   XX=    40.4833   YX=   -33.4867   ZX=    79.5367
   XY=   -38.0189   YY=    -6.0796   ZY=   -28.2242
   XZ=    73.5287   YZ=    -4.8374   ZZ=    96.5341
   Eigenvalues:   -32.5489     6.2818   157.2048
      7  C    Isotropic =    19.7149   Anisotropy =   132.3308
   XX=     4.6423   YX=     4.3264   ZX=    79.0447
   XY=     5.3163   YY=    19.7528   ZY=   -30.2454
   XZ=    87.4382   YZ=   -23.8662   ZZ=    34.7495
   Eigenvalues:   -69.9351    21.1442   107.9354
      8  O    Isotropic =   143.4062   Anisotropy =   210.7866
   XX=    88.4448   YX=   -23.0412   ZX=    51.9940
   XY=   -33.9145   YY=    97.8081   ZY=   -49.2431
   XZ=    75.5133   YZ=   -50.3167   ZZ=   243.9659
   Eigenvalues:    60.9241    85.3640   283.9307
      9  C    Isotropic =   142.0854   Anisotropy =     8.6751
   XX=   141.4197   YX=     1.9191   ZX=     2.1154
   XY=    -0.3944   YY=   137.7161   ZY=    -5.8644
   XZ=     2.2412   YZ=     4.6361   ZZ=   147.1204
   Eigenvalues:   137.4444   140.9431   147.8688
     10  C    Isotropic =   162.6005   Anisotropy =    30.6020
   XX=   149.3510   YX=     1.5627   ZX=     7.3705
   XY=     3.9672   YY=   166.2658   ZY=    14.8256
   XZ=     6.9245   YZ=     8.7801   ZZ=   172.1847
   Eigenvalues:   147.2716   157.5281   183.0019
     11  C    Isotropic =   153.5337   Anisotropy =    43.8326
   XX=   147.2127   YX=    -6.6948   ZX=     9.9042
   XY=    -2.9938   YY=   142.6015   ZY=   -13.1934
   XZ=    10.0599   YZ=   -22.1363   ZZ=   170.7868
   Eigenvalues:   134.0965   143.7492   182.7554
     12  C    Isotropic =    45.6663   Anisotropy =   192.4442
   XX=   167.6773   YX=    18.2363   ZX=    15.9622
   XY=    37.8884   YY=   -11.5825   ZY=    41.7973
   XZ=    11.4481   YZ=    34.1220   ZZ=   -19.0960
   Eigenvalues:   -53.8438    16.8802   173.9624
     13  C    Isotropic =    48.9434   Anisotropy =   201.7620
   XX=   171.6045   YX=    49.5638   ZX=    23.7896
   XY=    43.1007   YY=   -45.7658   ZY=   -20.0895
   XZ=    23.8404   YZ=   -17.8394   ZZ=    20.9916
   Eigenvalues:   -61.9298    25.3086   183.4514
     14  C    Isotropic =    50.1383   Anisotropy =   193.8501
   XX=   168.0922   YX=    36.5710   ZX=    33.8761
   XY=    29.9142   YY=    32.2867   ZY=   -19.9000
   XZ=    33.8014   YZ=   -21.0955   ZZ=   -49.9640
   Eigenvalues:   -62.1279    33.1711   179.3717
     15  C    Isotropic =    50.1526   Anisotropy =   192.6984
   XX=   171.4495   YX=    24.2530   ZX=    19.6462
   XY=    26.1578   YY=    -8.1172   ZY=    50.6015
   XZ=    18.8452   YZ=    48.3125   ZZ=   -12.8746
   Eigenvalues:   -60.0640    31.9036   178.6182
     16  C    Isotropic =    51.2419   Anisotropy =   189.6164
   XX=   165.6373   YX=    45.2241   ZX=    24.2718
   XY=    44.5951   YY=   -46.0429   ZY=   -18.8011
   XZ=    24.3801   YZ=   -17.9314   ZZ=    34.1314
   Eigenvalues:   -60.7781    36.8510   177.6528
     17  C    Isotropic =    43.2736   Anisotropy =   194.5144
   XX=   157.8663   YX=    49.5217   ZX=    34.6105
   XY=    31.7754   YY=    27.7083   ZY=   -30.6873
   XZ=    36.0657   YZ=   -15.4344   ZZ=   -55.7539
   Eigenvalues:   -70.6669    27.5379   172.9498
     18  C    Isotropic =    41.6387   Anisotropy =   179.8170
   XX=   -35.1573   YX=   -44.8550   ZX=   -35.5019
   XY=   -27.3640   YY=    88.4877   ZY=    66.8564
   XZ=   -38.9340   YZ=    67.8510   ZZ=    71.5857
   Eigenvalues:   -48.9952    12.3946   161.5167
     19  C    Isotropic =    47.9291   Anisotropy =   192.1510
   XX=    30.1864   YX=    -6.5927   ZX=   -44.4305
   XY=    -6.0315   YY=    65.8564   ZY=   110.1783
   XZ=   -44.5412   YZ=   110.5355   ZZ=    47.7446
   Eigenvalues:   -63.1133    30.8709   176.0298
     20  C    Isotropic =    50.2955   Anisotropy =   188.3333
   XX=   -43.0878   YX=   -32.0855   ZX=   -44.5637
   XY=   -32.0657   YY=   100.3877   ZY=    65.2770
   XZ=   -48.1224   YZ=    64.3530   ZZ=    93.5867
   Eigenvalues:   -58.3763    33.4118   175.8510
     21  C    Isotropic =    54.1768   Anisotropy =   180.0644
   XX=    15.8465   YX=   -60.7381   ZX=     6.7758
   XY=   -61.4431   YY=    61.5903   ZY=    92.7000
   XZ=     4.8540   YZ=    89.7630   ZZ=    85.0937
   Eigenvalues:   -56.0577    44.3684   174.2198
     22  C    Isotropic =    53.1475   Anisotropy =   184.0446
   XX=    36.9016   YX=    -2.1578   ZX=   -46.4200
   XY=    -5.0282   YY=    73.5355   ZY=   103.4024
   XZ=   -47.4974   YZ=   107.1724   ZZ=    49.0055
   Eigenvalues:   -56.7911    40.3899   175.8439
     23  C    Isotropic =    39.4218   Anisotropy =   203.5241
   XX=    -0.0819   YX=   -55.8129   ZX=    -7.5754
   XY=   -63.3636   YY=    54.0245   ZY=    99.6238
   XZ=    -0.4810   YZ=   108.9057   ZZ=    64.3228
   Eigenvalues:   -71.1711    14.3320   175.1046
     24  H    Isotropic =    24.5057   Anisotropy =    10.6993
   XX=    23.7215   YX=    -4.9100   ZX=    -3.3346
   XY=    -1.0043   YY=    25.8286   ZY=     6.2135
   XZ=    -0.5508   YZ=     3.9723   ZZ=    23.9670
   Eigenvalues:    19.6644    22.2142    31.6386
     25  H    Isotropic =    23.6186   Anisotropy =     8.7246
   XX=    25.6643   YX=     1.0685   ZX=    -4.5810
   XY=     2.5967   YY=    22.9406   ZY=    -0.5175
   XZ=    -5.3158   YZ=     1.3940   ZZ=    22.2509
   Eigenvalues:    18.2769    23.1438    29.4350
     26  H    Isotropic =    24.1377   Anisotropy =     5.3928
   XX=    23.5435   YX=     0.0518   ZX=    -2.3507
   XY=     1.4733   YY=    27.2381   ZY=     1.7877
   XZ=    -1.8223   YZ=     1.6566   ZZ=    21.6314
   Eigenvalues:    19.8241    24.8561    27.7329
     27  H    Isotropic =    29.8606   Anisotropy =     9.4115
   XX=    27.3849   YX=     1.1995   ZX=     1.9792
   XY=     0.6784   YY=    28.0994   ZY=     2.3479
   XZ=     1.8574   YZ=     4.4040   ZZ=    34.0975
   Eigenvalues:    26.5670    26.8799    36.1349
     28  H    Isotropic =    29.2418   Anisotropy =     9.4688
   XX=    29.7143   YX=    -2.7412   ZX=    -2.2650
   XY=    -2.9496   YY=    32.6475   ZY=     2.5718
   XZ=    -2.3717   YZ=     2.6777   ZZ=    25.3636
   Eigenvalues:    24.1092    28.0619    35.5543
     29  H    Isotropic =    29.1271   Anisotropy =     6.1813
   XX=    23.0338   YX=    -0.4415   ZX=     3.2414
   XY=    -0.1390   YY=    32.1945   ZY=     0.2369
   XZ=     3.1476   YZ=     0.5777   ZZ=    32.1530
   Eigenvalues:    22.0104    32.1229    33.2480
     30  H    Isotropic =    30.1407   Anisotropy =     9.8293
   XX=    30.9939   YX=    -4.9062   ZX=     2.2637
   XY=    -3.1269   YY=    30.8445   ZY=    -1.4253
   XZ=     3.1675   YZ=    -3.8193   ZZ=    28.5838
   Eigenvalues:    26.8174    26.9112    36.6936
     31  H    Isotropic =    25.2646   Anisotropy =    15.9855
   XX=    34.5658   YX=     2.6741   ZX=     4.8612
   XY=     4.6815   YY=    20.8451   ZY=    -0.2260
   XZ=     0.7784   YZ=    -1.0251   ZZ=    20.3828
   Eigenvalues:    18.6601    21.2121    35.9216
     32  H    Isotropic =    23.9714   Anisotropy =     3.3041
   XX=    25.0387   YX=     0.9937   ZX=     0.9522
   XY=     0.8801   YY=    23.3670   ZY=    -2.7937
   XZ=     0.4830   YZ=    -2.6330   ZZ=    23.5084
   Eigenvalues:    20.4255    25.3145    26.1741
     33  H    Isotropic =    23.9388   Anisotropy =     7.2351
   XX=    28.2445   YX=     1.6651   ZX=     1.5094
   XY=     1.3473   YY=    21.7505   ZY=    -1.3084
   XZ=     1.2188   YZ=    -0.6993   ZZ=    21.8213
   Eigenvalues:    20.2643    22.7898    28.7621
     34  H    Isotropic =    23.3133   Anisotropy =    12.0456
   XX=    27.6134   YX=    -3.4432   ZX=     6.0821
   XY=    -3.8183   YY=    19.7214   ZY=    -0.2678
   XZ=     3.7287   YZ=     1.2126   ZZ=    22.6051
   Eigenvalues:    17.0510    21.5452    31.3437
     35  H    Isotropic =    24.9333   Anisotropy =     9.3007
   XX=    23.5545   YX=    -2.8324   ZX=    -0.6660
   XY=     0.9839   YY=    22.4235   ZY=    -2.8886
   XZ=    -1.5390   YZ=    -5.9819   ZZ=    28.8220
   Eigenvalues:    19.6958    23.9704    31.1338
     36  H    Isotropic =    24.3443   Anisotropy =     5.6893
   XX=    22.7005   YX=     0.4206   ZX=    -1.9126
   XY=     0.2671   YY=    26.0324   ZY=    -2.1739
   XZ=    -1.1090   YZ=    -2.9711   ZZ=    24.3000
   Eigenvalues:    21.4450    23.4508    28.1372
     37  H    Isotropic =    23.8714   Anisotropy =     2.7565
   XX=    21.3083   YX=     0.6977   ZX=    -1.7975
   XY=     0.1576   YY=    25.4149   ZY=     0.4098
   XZ=    -1.5560   YZ=     0.3417   ZZ=    24.8909
   Eigenvalues:    20.5864    25.3186    25.7090
     38  H    Isotropic =    23.7471   Anisotropy =     6.3076
   XX=    20.5861   YX=     1.3251   ZX=    -0.6405
   XY=     0.7248   YY=    24.8990   ZY=    -2.2566
   XZ=    -1.4975   YZ=    -2.3204   ZZ=    25.7560
   Eigenvalues:    20.2859    23.0031    27.9521
     39  H    Isotropic =    22.5370   Anisotropy =    11.3276
   XX=    20.0524   YX=     0.1719   ZX=     0.3426
   XY=    -0.2109   YY=    27.7959   ZY=    -4.3835
   XZ=    -1.9766   YZ=    -5.3197   ZZ=    19.7626
   Eigenvalues:    17.2786    20.2436    30.0887
     40  P    Isotropic =   251.5034   Anisotropy =    99.8398
   XX=   284.3044   YX=     8.9119   ZX=    51.7247
   XY=     9.0416   YY=   196.7367   ZY=    36.9738
   XZ=    10.6589   YZ=    33.0677   ZZ=   273.4692
   Eigenvalues:   183.0639   253.3831   318.0633
     41  C    Isotropic =    52.7791   Anisotropy =   154.0606
   XX=    23.6390   YX=    -7.9170   ZX=    -4.7261
   XY=    -6.7188   YY=   -20.6368   ZY=     2.5955
   XZ=     0.9275   YZ=   -12.1286   ZZ=   155.3352
   Eigenvalues:   -21.9565    24.8076   155.4862
     42  C    Isotropic =    48.8924   Anisotropy =   187.4728
   XX=   -25.1124   YX=    35.5542   ZX=    -9.2207
   XY=    45.1687   YY=     0.8163   ZY=   -19.1801
   XZ=   -18.2015   YZ=   -11.1755   ZZ=   170.9733
   Eigenvalues:   -54.5612    27.3642   173.8743
     43  C    Isotropic =    54.8997   Anisotropy =   177.9470
   XX=   -39.9308   YX=   -29.6925   ZX=   -16.9042
   XY=   -28.4478   YY=    39.1031   ZY=   -27.4619
   XZ=   -29.1158   YZ=   -32.4970   ZZ=   165.5267
   Eigenvalues:   -54.0003    45.1684   173.5310
     44  C    Isotropic =    53.9687   Anisotropy =   179.4454
   XX=    33.8839   YX=    -6.0134   ZX=    -9.2428
   XY=   -12.4645   YY=   -32.9997   ZY=   -50.1704
   XZ=   -21.1453   YZ=   -46.7151   ZZ=   161.0218
   Eigenvalues:   -46.3804    34.6875   173.5989
     45  C    Isotropic =    43.8295   Anisotropy =   167.5387
   XX=   -17.7847   YX=    24.3909   ZX=    -0.6315
   XY=    15.7258   YY=    -0.1093   ZY=   -46.1818
   XZ=     1.7089   YZ=   -15.2932   ZZ=   149.3826
   Eigenvalues:   -32.6375     8.6041   155.5220
     46  C    Isotropic =    21.8716   Anisotropy =   130.0572
   XX=   -60.0055   YX=   -30.7414   ZX=   -23.0794
   XY=   -30.9760   YY=    19.5714   ZY=   -18.5100
   XZ=    -3.7476   YZ=    -8.4652   ZZ=   106.0490
   Eigenvalues:   -72.2085    29.2470   108.5764
     47  C    Isotropic =    38.0168   Anisotropy =   190.7255
   XX=   159.1174   YX=     8.0957   ZX=    31.2642
   XY=    16.4240   YY=    -1.4303   ZY=     9.2587
   XZ=    33.4572   YZ=     1.8611   ZZ=   -43.6368
   Eigenvalues:   -48.9549    -2.1619   165.1671
     48  C    Isotropic =    49.1431   Anisotropy =   195.8421
   XX=   176.2966   YX=    17.5589   ZX=    10.4368
   XY=    19.5402   YY=   -45.7790   ZY=    34.0020
   XZ=    18.9268   YZ=    28.8235   ZZ=    16.9116
   Eigenvalues:   -59.3839    27.1087   179.7044
     49  C    Isotropic =    54.6833   Anisotropy =   184.3258
   XX=   170.4886   YX=    32.4764   ZX=    25.4780
   XY=    29.2568   YY=   -18.6098   ZY=   -44.0982
   XZ=    25.9329   YZ=   -46.8656   ZZ=    12.1711
   Eigenvalues:   -58.2543    44.7371   177.5671
     50  C    Isotropic =    52.2671   Anisotropy =   191.1977
   XX=   173.5192   YX=    18.8066   ZX=    32.2007
   XY=    17.3816   YY=    35.9050   ZY=     9.3966
   XZ=    26.0236   YZ=     8.0552   ZZ=   -52.6228
   Eigenvalues:   -56.7576    33.8267   179.7322
     51  C    Isotropic =    52.0536   Anisotropy =   194.8081
   XX=   177.6745   YX=    18.7224   ZX=    16.9397
   XY=    23.9742   YY=   -40.7441   ZY=    37.1979
   XZ=    13.1604   YZ=    36.4466   ZZ=    19.2304
   Eigenvalues:   -58.9558    33.1909   181.9257
     52  C    Isotropic =    45.0347   Anisotropy =   205.8553
   XX=   175.8733   YX=    34.5942   ZX=    15.4346
   XY=    33.5127   YY=   -36.5320   ZY=   -41.3296
   XZ=    24.0900   YZ=   -31.7371   ZZ=    -4.2372
   Eigenvalues:   -66.7022    19.5348   182.2716
     53  C    Isotropic =    46.2140   Anisotropy =   178.3189
   XX=    -2.3359   YX=    61.8920   ZX=   -45.5432
   XY=    62.6084   YY=    46.7089   ZY=   -75.3961
   XZ=   -25.0364   YZ=   -53.7571   ZZ=    94.2688
   Eigenvalues:   -45.2364    18.7851   165.0932
     54  C    Isotropic =    41.7348   Anisotropy =   193.8323
   XX=    55.8047   YX=    42.3801   ZX=   -38.7050
   XY=    48.9259   YY=    44.3616   ZY=  -100.5646
   XZ=   -44.2334   YZ=  -104.9746   ZZ=    25.0381
   Eigenvalues:   -68.5229    22.7711   170.9564
     55  C    Isotropic =    48.6691   Anisotropy =   191.4924
   XX=    -0.9913   YX=    82.9313   ZX=   -35.7663
   XY=    82.6676   YY=    54.2544   ZY=   -64.4035
   XZ=   -34.9468   YZ=   -62.3797   ZZ=    92.7444
   Eigenvalues:   -61.2183    30.8950   176.3307
     56  C    Isotropic =    54.1559   Anisotropy =   181.2201
   XX=    12.4099   YX=    24.9685   ZX=   -84.5685
   XY=    26.9997   YY=    94.4275   ZY=   -62.4696
   XZ=   -84.0267   YZ=   -62.5934   ZZ=    55.6302
   Eigenvalues:   -55.5243    43.0227   174.9693
     57  C    Isotropic =    51.8039   Anisotropy =   185.7371
   XX=    63.7505   YX=    40.0408   ZX=   -34.9920
   XY=    39.7695   YY=    41.4819   ZY=  -102.7888
   XZ=   -37.2545   YZ=  -105.0608   ZZ=    50.1793
   Eigenvalues:   -58.3184    38.1015   175.6287
     58  C    Isotropic =    33.6676   Anisotropy =   206.4749
   XX=   -11.0191   YX=    33.9490   ZX=   -83.3412
   XY=    33.1520   YY=    72.7203   ZY=   -74.8391
   XZ=   -82.7119   YZ=   -81.2320   ZZ=    39.3015
   Eigenvalues:   -76.0822     5.7674   171.3175
     59  H    Isotropic =    23.6337   Anisotropy =    10.8709
   XX=    25.1726   YX=     4.6544   ZX=    -0.4693
   XY=     2.6389   YY=    28.5230   ZY=     1.5263
   XZ=     1.7855   YZ=    -1.1245   ZZ=    17.2054
   Eigenvalues:    17.1504    22.8697    30.8809
     60  H    Isotropic =    23.5814   Anisotropy =     8.6638
   XX=    29.3117   YX=     0.5032   ZX=    -0.5854
   XY=    -1.5896   YY=    22.7702   ZY=     0.6566
   XZ=     0.6498   YZ=     2.1827   ZZ=    18.6621
   Eigenvalues:    18.2159    23.1709    29.3572
     61  H    Isotropic =    23.8754   Anisotropy =     5.3978
   XX=    25.0803   YX=     0.4055   ZX=    -0.6693
   XY=    -0.4475   YY=    27.3680   ZY=     1.3560
   XZ=    -0.7327   YZ=     0.4815   ZZ=    19.1779
   Eigenvalues:    18.9969    25.1554    27.4739
     62  H    Isotropic =    29.2073   Anisotropy =     9.5886
   XX=    29.5157   YX=     3.4386   ZX=    -1.2802
   XY=     3.8691   YY=    33.4027   ZY=     0.3104
   XZ=    -1.3177   YZ=     0.9188   ZZ=    24.7034
   Eigenvalues:    24.0722    27.9499    35.5997
     63  H    Isotropic =    29.9876   Anisotropy =    10.1061
   XX=    27.1271   YX=     1.5265   ZX=    -1.0939
   XY=     2.1041   YY=    31.3924   ZY=    -3.3192
   XZ=    -1.7340   YZ=    -6.2082   ZZ=    31.4433
   Eigenvalues:    26.3348    26.9030    36.7250
     64  H    Isotropic =    24.4440   Anisotropy =    13.2994
   XX=    32.0845   YX=    -2.3412   ZX=    -1.1523
   XY=    -3.3913   YY=    21.1275   ZY=    -2.0413
   XZ=     5.3493   YZ=    -2.6485   ZZ=    20.1199
   Eigenvalues:    18.2228    21.7990    33.3103
     65  H    Isotropic =    21.3065   Anisotropy =    15.0463
   XX=    21.3649   YX=    -8.8303   ZX=    -1.4419
   XY=    -7.7284   YY=    24.4078   ZY=    -0.2685
   XZ=     0.3006   YZ=     1.0358   ZZ=    18.1467
   Eigenvalues:    14.4582    18.1238    31.3373
     66  H    Isotropic =    26.0219   Anisotropy =    10.2582
   XX=    22.1223   YX=     0.4519   ZX=    -0.1234
   XY=    -0.4485   YY=    23.2566   ZY=     0.0248
   XZ=    -1.0642   YZ=    -2.3527   ZZ=    32.6867
   Eigenvalues:    22.0852    23.1198    32.8606
     67  H    Isotropic =    25.0392   Anisotropy =     8.3169
   XX=    21.1001   YX=     0.8628   ZX=     1.5558
   XY=     0.1565   YY=    24.3667   ZY=    -2.1634
   XZ=     0.9512   YZ=    -2.3301   ZZ=    29.6507
   Eigenvalues:    20.7050    23.8288    30.5837
     68  H    Isotropic =    24.6098   Anisotropy =     2.8506
   XX=    21.8443   YX=    -0.0885   ZX=     2.5820
   XY=    -0.0645   YY=    26.3697   ZY=     0.1978
   XZ=     0.6971   YZ=    -0.5653   ZZ=    25.6153
   Eigenvalues:    21.2312    26.0880    26.5101
     69  H    Isotropic =    25.2778   Anisotropy =     4.3356
   XX=    25.4967   YX=    -1.4826   ZX=     1.9154
   XY=     0.2683   YY=    22.5917   ZY=    -0.0533
   XZ=     0.1549   YZ=    -0.1707   ZZ=    27.7449
   Eigenvalues:    22.4681    25.1970    28.1682
     70  H    Isotropic =    25.3779   Anisotropy =    10.7068
   XX=    27.5374   YX=    -1.7185   ZX=    -3.1855
   XY=     2.5156   YY=    21.6776   ZY=    -6.1410
   XZ=    -2.6819   YZ=    -6.3202   ZZ=    26.9186
   Eigenvalues:    17.3662    26.2517    32.5157
     71  H    Isotropic =    23.5379   Anisotropy =     7.2685
   XX=    26.5721   YX=    -3.2100   ZX=     1.0932
   XY=    -2.9708   YY=    22.7888   ZY=     0.9556
   XZ=     1.5644   YZ=     0.7586   ZZ=    21.2529
   Eigenvalues:    19.7242    22.5059    28.3836
     72  H    Isotropic =    23.7254   Anisotropy =     3.6131
   XX=    24.5251   YX=    -0.9828   ZX=     1.1848
   XY=    -0.5037   YY=    23.0723   ZY=     2.3859
   XZ=     1.9577   YZ=     2.3976   ZZ=    23.5788
   Eigenvalues:    20.2998    24.7423    26.1341
     73  H    Isotropic =    24.0730   Anisotropy =     6.9028
   XX=    26.3315   YX=    -3.3207   ZX=    -0.7152
   XY=    -2.8340   YY=    24.1626   ZY=     1.9763
   XZ=     0.7453   YZ=     1.6812   ZZ=    21.7248
   Eigenvalues:    20.2742    23.2699    28.6748
     74  H    Isotropic =    24.2178   Anisotropy =     7.4714
   XX=    28.1874   YX=     0.4803   ZX=     2.8978
   XY=     0.5762   YY=    21.7462   ZY=    -1.5583
   XZ=     2.2177   YZ=    -1.6591   ZZ=    22.7200
   Eigenvalues:    20.0372    23.4176    29.1988
     75  Pd   Isotropic =  -213.5055   Anisotropy =   291.3020
   XX=   -31.4330   YX=    48.8529   ZX=     7.3251
   XY=    82.1101   YY=  -525.6865   ZY=    78.6133
   XZ=    -2.1582   YZ=    90.6011   ZZ=   -83.3970
   Eigenvalues:  -549.2168   -71.9955   -19.3042
     76  Cl   Isotropic =   950.4788   Anisotropy =   608.9701
   XX=   714.4582   YX=   -40.9288   ZX=  -112.6324
   XY=  -157.0451   YY=  1328.5630   ZY=   -16.2681
   XZ=  -112.2363   YZ=  -181.8042   ZZ=   808.4152
   Eigenvalues:   613.1350   881.8426  1356.4589
     77  Cl   Isotropic =   840.9123   Anisotropy =   226.9015
   XX=   724.8520   YX=   -21.3737   ZX=   106.0220
   XY=   -83.4730   YY=   981.6029   ZY=    20.9359
   XZ=   100.0417   YZ=     6.7594   ZZ=   816.2819
   Eigenvalues:   649.8257   880.7312   992.1799
 End of Minotr F.D. properties file   721 does not exist.
 End of Minotr F.D. properties file   722 does not exist.
 End of Minotr F.D. properties file   788 does not exist.

 **********************************************************************

            Population analysis using the SCF density.

 **********************************************************************

 Orbital symmetries:
       Occupied  (A) (A) (A) (A) (A) (A) (A) (A) (A) (A) (A) (A)
                 (A) (A) (A) (A) (A) (A) (A) (A) (A) (A) (A) (A)
                 (A) (A) (A) (A) (A) (A) (A) (A) (A) (A) (A) (A)
                 (A) (A) (A) (A) (A) (A) (A) (A) (A) (A) (A) (A)
                 (A) (A) (A) (A) (A) (A) (A) (A) (A) (A) (A) (A)
                 (A) (A) (A) (A) (A) (A) (A) (A) (A) (A) (A) (A)
                 (A) (A) (A) (A) (A) (A) (A) (A) (A) (A) (A) (A)
                 (A) (A) (A) (A) (A) (A) (A) (A) (A) (A) (A) (A)
                 (A) (A) (A) (A) (A) (A) (A) (A) (A) (A) (A) (A)
                 (A) (A) (A) (A) (A) (A) (A) (A) (A) (A) (A) (A)
                 (A) (A) (A) (A) (A) (A) (A) (A) (A) (A) (A) (A)
                 (A) (A) (A) (A) (A) (A) (A) (A) (A) (A) (A) (A)
                 (A) (A) (A) (A) (A) (A) (A) (A) (A) (A) (A) (A)
                 (A) (A) (A) (A) (A) (A) (A) (A) (A) (A) (A) (A)
                 (A) (A) (A) (A) (A) (A) (A) (A) (A) (A)
       Virtual   (A) (A) (A) (A) (A) (A) (A) (A) (A) (A) (A) (A)
                 (A) (A) (A) (A) (A) (A) (A) (A) (A) (A) (A) (A)
                 (A) (A) (A) (A) (A) (A) (A) (A) (A) (A) (A) (A)
                 (A) (A) (A) (A) (A) (A) (A) (A) (A) (A) (A) (A)
                 (A) (A) (A) (A) (A) (A) (A) (A) (A) (A) (A) (A)
                 (A) (A) (A) (A) (A) (A) (A) (A) (A) (A) (A) (A)
                 (A) (A) (A) (A) (A) (A) (A) (A) (A) (A) (A) (A)
                 (A) (A) (A) (A) (A) (A) (A) (A) (A) (A) (A) (A)
                 (A) (A) (A) (A) (A) (A) (A) (A) (A) (A) (A) (A)
                 (A) (A) (A) (A) (A) (A) (A) (A) (A) (A) (A) (A)
                 (A) (A) (A) (A) (A) (A) (A) (A) (A) (A) (A) (A)
                 (A) (A) (A) (A) (A) (A) (A) (A) (A) (A) (A) (A)
                 (A) (A) (A) (A) (A) (A) (A) (A) (A) (A) (A) (A)
                 (A) (A) (A) (A) (A) (A) (A) (A) (A) (A) (A) (A)
                 (A) (A) (A) (A) (A) (A) (A) (A) (A) (A) (A) (A)
                 (A) (A) (A) (A) (A) (A) (A) (A) (A) (A) (A) (A)
                 (A) (A) (A) (A) (A) (A) (A) (A) (A) (A) (A) (A)
                 (A) (A) (A) (A) (A) (A) (A) (A) (A) (A) (A) (A)
                 (A) (A) (A) (A) (A) (A) (A) (A) (A) (A) (A) (A)
                 (A) (A) (A) (A) (A) (A) (A) (A) (A) (A) (A) (A)
                 (A) (A) (A) (A) (A) (A) (A) (A) (A) (A) (A) (A)
                 (A) (A) (A) (A) (A) (A) (A) (A) (A) (A) (A) (A)
                 (A) (A) (A) (A) (A) (A) (A) (A) (A) (A) (A) (A)
                 (A) (A) (A) (A) (A) (A) (A) (A) (A) (A) (A) (A)
                 (A) (A) (A) (A) (A) (A) (A) (A) (A) (A) (A) (A)
                 (A) (A) (A) (A) (A) (A) (A) (A) (A) (A) (A) (A)
                 (A) (A) (A) (A) (A) (A) (A) (A) (A) (A) (A) (A)
                 (A) (A) (A) (A) (A) (A) (A) (A) (A) (A) (A) (A)
                 (A) (A) (A) (A) (A) (A) (A) (A) (A) (A) (A) (A)
                 (A) (A) (A) (A) (A) (A) (A) (A) (A) (A) (A) (A)
                 (A) (A) (A) (A) (A) (A) (A) (A) (A) (A) (A) (A)
                 (A) (A) (A) (A) (A) (A) (A) (A) (A) (A) (A) (A)
                 (A) (A) (A) (A) (A) (A) (A) (A) (A) (A) (A) (A)
                 (A) (A) (A) (A) (A) (A) (A) (A) (A) (A) (A) (A)
                 (A) (A) (A) (A) (A) (A) (A) (A) (A) (A) (A) (A)
                 (A) (A) (A) (A) (A) (A) (A) (A) (A) (A) (A) (A)
                 (A) (A) (A) (A) (A) (A) (A) (A) (A) (A) (A) (A)
                 (A) (A) (A) (A) (A) (A) (A) (A) (A) (A) (A) (A)
                 (A) (A) (A) (A) (A) (A) (A) (A) (A) (A) (A) (A)
                 (A) (A) (A) (A) (A) (A) (A) (A) (A) (A) (A) (A)
                 (A) (A) (A) (A) (A) (A) (A) (A) (A) (A) (A) (A)
                 (A) (A) (A) (A) (A) (A) (A) (A) (A) (A) (A) (A)
                 (A) (A) (A) (A) (A) (A) (A) (A) (A) (A) (A) (A)
                 (A) (A) (A) (A) (A) (A) (A) (A) (A) (A) (A) (A)
                 (A) (A) (A) (A) (A) (A) (A) (A) (A) (A) (A) (A)
                 (A) (A) (A) (A) (A) (A) (A) (A) (A) (A) (A) (A)
                 (A) (A) (A) (A) (A) (A) (A) (A) (A) (A) (A) (A)
                 (A) (A) (A) (A) (A) (A) (A) (A) (A) (A) (A) (A)
                 (A) (A) (A) (A) (A) (A) (A) (A) (A) (A) (A) (A)
                 (A) (A) (A) (A) (A) (A) (A) (A) (A) (A) (A) (A)
                 (A) (A) (A) (A) (A) (A) (A) (A) (A) (A) (A) (A)
                 (A) (A) (A) (A) (A) (A) (A) (A) (A) (A) (A) (A)
                 (A) (A) (A) (A) (A) (A) (A) (A) (A) (A) (A) (A)
                 (A) (A) (A) (A) (A) (A) (A) (A) (A) (A) (A) (A)
                 (A) (A) (A) (A) (A) (A) (A) (A) (A) (A) (A) (A)
                 (A) (A) (A) (A) (A) (A) (A) (A) (A) (A) (A) (A)
                 (A) (A) (A) (A) (A) (A) (A) (A) (A) (A) (A) (A)
                 (A) (A) (A) (A) (A) (A) (A) (A) (A) (A) (A) (A)
                 (A) (A) (A) (A) (A) (A) (A) (A) (A) (A) (A) (A)
                 (A) (A) (A) (A) (A) (A) (A) (A) (A) (A) (A) (A)
                 (A) (A) (A) (A) (A) (A) (A) (A) (A) (A) (A) (A)
                 (A) (A) (A) (A) (A) (A) (A) (A) (A) (A) (A) (A)
                 (A) (A) (A) (A) (A) (A) (A) (A) (A) (A) (A) (A)
                 (A) (A) (A) (A) (A) (A) (A) (A) (A) (A) (A) (A)
                 (A) (A) (A) (A) (A) (A) (A) (A) (A) (A) (A) (A)
                 (A) (A) (A) (A) (A) (A) (A) (A) (A) (A) (A) (A)
                 (A) (A) (A) (A) (A) (A) (A) (A) (A) (A) (A) (A)
                 (A) (A) (A) (A) (A) (A) (A) (A) (A) (A) (A) (A)
                 (A) (A) (A) (A) (A) (A) (A) (A) (A) (A) (A) (A)
                 (A) (A) (A) (A) (A) (A) (A) (A) (A) (A) (A) (A)
                 (A) (A) (A) (A) (A) (A) (A) (A) (A) (A) (A) (A)
                 (A) (A) (A) (A) (A) (A) (A) (A) (A) (A) (A) (A)
                 (A) (A) (A) (A) (A) (A) (A) (A) (A) (A) (A) (A)
                 (A) (A) (A) (A) (A) (A) (A) (A) (A) (A) (A) (A)
                 (A) (A) (A) (A) (A) (A) (A) (A) (A) (A) (A) (A)
                 (A) (A) (A) (A) (A) (A) (A) (A) (A) (A) (A) (A)
                 (A) (A) (A) (A) (A) (A) (A) (A) (A) (A) (A) (A)
                 (A) (A) (A) (A) (A) (A) (A) (A) (A) (A) (A) (A)
                 (A) (A) (A) (A) (A) (A) (A) (A) (A) (A) (A) (A)
                 (A) (A) (A) (A) (A) (A) (A) (A) (A) (A) (A) (A)
                 (A) (A) (A) (A) (A) (A) (A) (A) (A) (A) (A) (A)
                 (A) (A) (A) (A) (A) (A) (A) (A) (A) (A) (A) (A)
                 (A) (A) (A) (A) (A) (A) (A) (A) (A) (A) (A) (A)
                 (A) (A) (A) (A) (A) (A) (A) (A) (A) (A) (A) (A)
                 (A) (A) (A) (A) (A) (A) (A) (A) (A) (A) (A) (A)
                 (A) (A) (A) (A) (A) (A) (A) (A) (A) (A) (A) (A)
                 (A) (A) (A) (A) (A) (A) (A) (A) (A) (A) (A) (A)
                 (A) (A) (A) (A) (A) (A) (A) (A) (A) (A) (A) (A)
                 (A) (A) (A) (A) (A) (A) (A) (A) (A) (A) (A) (A)
                 (A) (A) (A) (A) (A) (A) (A) (A) (A) (A) (A) (A)
                 (A) (A) (A) (A) (A) (A) (A) (A) (A) (A) (A) (A)
                 (A) (A) (A) (A) (A) (A) (A) (A) (A) (A) (A) (A)
                 (A) (A) (A) (A) (A) (A) (A) (A) (A) (A) (A) (A)
                 (A) (A) (A) (A) (A) (A) (A) (A) (A) (A) (A) (A)
                 (A) (A) (A) (A) (A) (A) (A) (A) (A) (A) (A) (A)
                 (A) (A) (A) (A) (A) (A) (A) (A) (A) (A) (A) (A)
                 (A) (A) (A) (A) (A) (A) (A) (A) (A) (A) (A) (A)
                 (A) (A) (A) (A) (A) (A) (A) (A) (A) (A) (A) (A)
                 (A) (A) (A) (A) (A) (A) (A) (A) (A) (A) (A) (A)
                 (A) (A) (A) (A) (A) (A) (A) (A) (A) (A) (A) (A)
                 (A) (A) (A) (A) (A) (A) (A) (A) (A) (A) (A) (A)
                 (A) (A) (A) (A) (A) (A) (A) (A) (A) (A) (A) (A)
                 (A) (A) (A) (A) (A) (A) (A) (A) (A) (A) (A) (A)
                 (A) (A) (A) (A) (A) (A) (A) (A) (A) (A) (A) (A)
                 (A) (A) (A) (A) (A) (A) (A) (A) (A) (A) (A) (A)
                 (A) (A) (A) (A) (A) (A) (A) (A) (A) (A) (A) (A)
                 (A) (A) (A) (A) (A) (A) (A) (A) (A) (A) (A) (A)
                 (A) (A) (A) (A) (A) (A) (A) (A) (A) (A) (A) (A)
                 (A) (A) (A) (A) (A) (A) (A) (A) (A) (A) (A) (A)
                 (A) (A) (A) (A) (A) (A) (A) (A) (A) (A) (A) (A)
                 (A) (A) (A) (A) (A) (A) (A) (A) (A) (A) (A) (A)
                 (A) (A) (A) (A) (A) (A) (A) (A) (A) (A) (A) (A)
                 (A) (A) (A) (A) (A) (A) (A) (A) (A) (A) (A) (A)
                 (A) (A) (A) (A) (A) (A) (A) (A) (A) (A) (A) (A)
                 (A) (A) (A) (A) (A) (A) (A) (A) (A) (A) (A) (A)
                 (A) (A) (A) (A) (A) (A) (A) (A) (A) (A) (A) (A)
                 (A) (A) (A) (A) (A) (A) (A) (A) (A) (A) (A) (A)
                 (A) (A) (A) (A) (A) (A) (A) (A) (A) (A) (A) (A)
                 (A) (A) (A) (A) (A) (A) (A) (A) (A) (A) (A) (A)
                 (A) (A) (A) (A) (A) (A) (A) (A) (A) (A)
 The electronic state is 1-A.
 Alpha  occ. eigenvalues -- -101.61273-101.60530 -77.26580 -77.26528 -19.27024
 Alpha  occ. eigenvalues --  -10.31543 -10.31008 -10.28182 -10.26629 -10.26439
 Alpha  occ. eigenvalues --  -10.26191 -10.26189 -10.26087 -10.25898 -10.25876
 Alpha  occ. eigenvalues --  -10.25784 -10.25504 -10.25497 -10.25322 -10.25143
 Alpha  occ. eigenvalues --  -10.25114 -10.25049 -10.25041 -10.24921 -10.24901
 Alpha  occ. eigenvalues --  -10.24825 -10.24807 -10.24793 -10.24720 -10.24683
 Alpha  occ. eigenvalues --  -10.24645 -10.24527 -10.24431 -10.24250 -10.24088
 Alpha  occ. eigenvalues --  -10.23792 -10.23779 -10.23757 -10.23650 -10.23513
 Alpha  occ. eigenvalues --  -10.23468 -10.23313 -10.23102 -10.22999  -9.43773
 Alpha  occ. eigenvalues --   -9.43036  -7.16979  -7.16482  -7.16455  -7.16253
 Alpha  occ. eigenvalues --   -7.15762  -7.15691  -6.65691  -6.65686  -4.79307
 Alpha  occ. eigenvalues --   -4.79294  -4.79279  -4.79251  -4.79010  -4.79000
 Alpha  occ. eigenvalues --   -3.51001  -2.18875  -2.18617  -2.15148  -1.14163
 Alpha  occ. eigenvalues --   -0.91106  -0.90904  -0.89969  -0.89376  -0.88665
 Alpha  occ. eigenvalues --   -0.88157  -0.86157  -0.81725  -0.81002  -0.80044
 Alpha  occ. eigenvalues --   -0.78755  -0.78505  -0.78235  -0.77791  -0.77632
 Alpha  occ. eigenvalues --   -0.77384  -0.77062  -0.76887  -0.76246  -0.73896
 Alpha  occ. eigenvalues --   -0.72807  -0.72669  -0.69687  -0.69176  -0.67303
 Alpha  occ. eigenvalues --   -0.67129  -0.64209  -0.63906  -0.63306  -0.63180
 Alpha  occ. eigenvalues --   -0.62745  -0.62447  -0.62169  -0.61949  -0.60004
 Alpha  occ. eigenvalues --   -0.59196  -0.58097  -0.57784  -0.54580  -0.54263
 Alpha  occ. eigenvalues --   -0.53561  -0.53022  -0.52582  -0.51370  -0.50706
 Alpha  occ. eigenvalues --   -0.49635  -0.49210  -0.48475  -0.48289  -0.48228
 Alpha  occ. eigenvalues --   -0.48001  -0.47500  -0.47448  -0.47179  -0.46888
 Alpha  occ. eigenvalues --   -0.46704  -0.46512  -0.45097  -0.44835  -0.44601
 Alpha  occ. eigenvalues --   -0.44472  -0.44136  -0.43995  -0.43540  -0.43480
 Alpha  occ. eigenvalues --   -0.43031  -0.41917  -0.41852  -0.41628  -0.41283
 Alpha  occ. eigenvalues --   -0.41001  -0.40680  -0.40456  -0.39828  -0.39119
 Alpha  occ. eigenvalues --   -0.39073  -0.38430  -0.38159  -0.37907  -0.37532
 Alpha  occ. eigenvalues --   -0.37356  -0.37013  -0.36783  -0.36739  -0.36551
 Alpha  occ. eigenvalues --   -0.36078  -0.36019  -0.35594  -0.35251  -0.34935
 Alpha  occ. eigenvalues --   -0.34303  -0.32716  -0.31254  -0.30695  -0.30164
 Alpha  occ. eigenvalues --   -0.29821  -0.29228  -0.28775  -0.28197  -0.28101
 Alpha  occ. eigenvalues --   -0.27930  -0.27832  -0.27432  -0.27174  -0.26821
 Alpha  occ. eigenvalues --   -0.26352  -0.25987  -0.25461  -0.24582  -0.24106
 Alpha  occ. eigenvalues --   -0.23622  -0.22720  -0.22531
 Alpha virt. eigenvalues --   -0.07548  -0.05557  -0.04520  -0.03906  -0.03744
 Alpha virt. eigenvalues --   -0.03251  -0.03172  -0.02878  -0.02387  -0.01777
 Alpha virt. eigenvalues --   -0.01581  -0.01162  -0.00578   0.01046   0.01910
 Alpha virt. eigenvalues --    0.03488   0.03700   0.03840   0.04498   0.05022
 Alpha virt. eigenvalues --    0.05167   0.05609   0.06125   0.06601   0.06730
 Alpha virt. eigenvalues --    0.06999   0.07324   0.07752   0.07868   0.08159
 Alpha virt. eigenvalues --    0.08372   0.08797   0.09163   0.09242   0.09507
 Alpha virt. eigenvalues --    0.09694   0.09970   0.10364   0.10484   0.10533
 Alpha virt. eigenvalues --    0.10705   0.10987   0.11159   0.11398   0.11719
 Alpha virt. eigenvalues --    0.11829   0.12040   0.12306   0.12715   0.12822
 Alpha virt. eigenvalues --    0.13080   0.13478   0.13689   0.13931   0.14102
 Alpha virt. eigenvalues --    0.14847   0.14911   0.15150   0.15315   0.15426
 Alpha virt. eigenvalues --    0.15834   0.15944   0.16162   0.16771   0.17032
 Alpha virt. eigenvalues --    0.17466   0.17785   0.17963   0.18203   0.18446
 Alpha virt. eigenvalues --    0.18534   0.19127   0.19493   0.19599   0.19792
 Alpha virt. eigenvalues --    0.20039   0.20333   0.20744   0.20921   0.21059
 Alpha virt. eigenvalues --    0.21207   0.21455   0.21822   0.21994   0.22131
 Alpha virt. eigenvalues --    0.22277   0.22506   0.22622   0.22886   0.23020
 Alpha virt. eigenvalues --    0.23626   0.23699   0.24046   0.24308   0.24477
 Alpha virt. eigenvalues --    0.24571   0.24695   0.24929   0.25142   0.25318
 Alpha virt. eigenvalues --    0.25473   0.25602   0.25852   0.26054   0.26161
 Alpha virt. eigenvalues --    0.26441   0.26552   0.26974   0.27305   0.27460
 Alpha virt. eigenvalues --    0.27535   0.27803   0.28083   0.28131   0.28583
 Alpha virt. eigenvalues --    0.28843   0.28911   0.29377   0.29518   0.29743
 Alpha virt. eigenvalues --    0.30069   0.30328   0.30527   0.30704   0.30901
 Alpha virt. eigenvalues --    0.31093   0.31282   0.31615   0.31929   0.32369
 Alpha virt. eigenvalues --    0.32806   0.32839   0.33152   0.33436   0.33739
 Alpha virt. eigenvalues --    0.33985   0.34158   0.34235   0.34422   0.34680
 Alpha virt. eigenvalues --    0.34950   0.35087   0.35323   0.35783   0.36080
 Alpha virt. eigenvalues --    0.36298   0.36464   0.36926   0.37067   0.37265
 Alpha virt. eigenvalues --    0.37516   0.37620   0.37850   0.38112   0.38365
 Alpha virt. eigenvalues --    0.38511   0.38582   0.38730   0.38884   0.39096
 Alpha virt. eigenvalues --    0.39289   0.39575   0.39864   0.39999   0.40220
 Alpha virt. eigenvalues --    0.40473   0.40682   0.40799   0.40963   0.41101
 Alpha virt. eigenvalues --    0.41189   0.41358   0.41592   0.41748   0.41867
 Alpha virt. eigenvalues --    0.42074   0.42162   0.42294   0.42684   0.42802
 Alpha virt. eigenvalues --    0.42910   0.42973   0.43196   0.43338   0.43477
 Alpha virt. eigenvalues --    0.43669   0.43974   0.44226   0.44349   0.44400
 Alpha virt. eigenvalues --    0.44704   0.44907   0.45123   0.45189   0.45422
 Alpha virt. eigenvalues --    0.45602   0.45853   0.46072   0.46274   0.46451
 Alpha virt. eigenvalues --    0.46737   0.46897   0.47160   0.47222   0.47444
 Alpha virt. eigenvalues --    0.47593   0.47903   0.48351   0.48502   0.48672
 Alpha virt. eigenvalues --    0.48954   0.49361   0.49448   0.49513   0.49613
 Alpha virt. eigenvalues --    0.49740   0.50136   0.50336   0.50599   0.50713
 Alpha virt. eigenvalues --    0.50746   0.51004   0.51292   0.51330   0.51688
 Alpha virt. eigenvalues --    0.52118   0.52237   0.52451   0.52973   0.53251
 Alpha virt. eigenvalues --    0.53418   0.53672   0.53980   0.54151   0.54255
 Alpha virt. eigenvalues --    0.54352   0.54576   0.54977   0.55422   0.55562
 Alpha virt. eigenvalues --    0.56120   0.56377   0.56686   0.57003   0.57193
 Alpha virt. eigenvalues --    0.57976   0.58083   0.58367   0.58647   0.59125
 Alpha virt. eigenvalues --    0.59589   0.59949   0.60098   0.60377   0.60550
 Alpha virt. eigenvalues --    0.61045   0.61158   0.61772   0.62363   0.62416
 Alpha virt. eigenvalues --    0.62965   0.63077   0.63613   0.63873   0.64133
 Alpha virt. eigenvalues --    0.64318   0.64384   0.65138   0.65244   0.65722
 Alpha virt. eigenvalues --    0.65805   0.66033   0.66237   0.66566   0.67001
 Alpha virt. eigenvalues --    0.67278   0.67406   0.67541   0.67711   0.67964
 Alpha virt. eigenvalues --    0.68238   0.68864   0.69016   0.69182   0.69461
 Alpha virt. eigenvalues --    0.69566   0.69920   0.69973   0.70251   0.70585
 Alpha virt. eigenvalues --    0.70728   0.71176   0.71230   0.71716   0.71936
 Alpha virt. eigenvalues --    0.72201   0.72498   0.72629   0.72784   0.73469
 Alpha virt. eigenvalues --    0.73529   0.73572   0.74043   0.74221   0.74343
 Alpha virt. eigenvalues --    0.74793   0.74826   0.75493   0.75525   0.75799
 Alpha virt. eigenvalues --    0.76286   0.76428   0.76465   0.77031   0.77177
 Alpha virt. eigenvalues --    0.77448   0.77704   0.77873   0.78130   0.78673
 Alpha virt. eigenvalues --    0.78825   0.79237   0.79476   0.79998   0.80089
 Alpha virt. eigenvalues --    0.80346   0.80562   0.80917   0.81115   0.81496
 Alpha virt. eigenvalues --    0.81793   0.82143   0.82436   0.82904   0.82981
 Alpha virt. eigenvalues --    0.83631   0.83710   0.83900   0.84025   0.84332
 Alpha virt. eigenvalues --    0.84726   0.84923   0.85101   0.85405   0.85882
 Alpha virt. eigenvalues --    0.86480   0.86672   0.86949   0.87328   0.88032
 Alpha virt. eigenvalues --    0.88334   0.88647   0.88709   0.89021   0.89209
 Alpha virt. eigenvalues --    0.89505   0.90035   0.90157   0.90375   0.90432
 Alpha virt. eigenvalues --    0.90880   0.91151   0.91460   0.92036   0.92222
 Alpha virt. eigenvalues --    0.92841   0.92998   0.93296   0.93780   0.94029
 Alpha virt. eigenvalues --    0.94546   0.94795   0.95037   0.95416   0.95593
 Alpha virt. eigenvalues --    0.95799   0.96160   0.96534   0.96977   0.97145
 Alpha virt. eigenvalues --    0.97663   0.98190   0.98555   0.99171   0.99365
 Alpha virt. eigenvalues --    0.99506   0.99913   1.00286   1.00562   1.00882
 Alpha virt. eigenvalues --    1.01446   1.02093   1.02226   1.02949   1.03999
 Alpha virt. eigenvalues --    1.04175   1.04487   1.05257   1.05614   1.05987
 Alpha virt. eigenvalues --    1.06089   1.06707   1.07160   1.07688   1.08036
 Alpha virt. eigenvalues --    1.08470   1.08665   1.09054   1.09424   1.09566
 Alpha virt. eigenvalues --    1.09730   1.10237   1.10376   1.10581   1.10967
 Alpha virt. eigenvalues --    1.11235   1.11427   1.11635   1.12205   1.12430
 Alpha virt. eigenvalues --    1.13136   1.13473   1.13747   1.13967   1.14534
 Alpha virt. eigenvalues --    1.14952   1.15187   1.15866   1.16212   1.16492
 Alpha virt. eigenvalues --    1.17051   1.17272   1.17537   1.17922   1.18462
 Alpha virt. eigenvalues --    1.18869   1.19161   1.19314   1.20057   1.20287
 Alpha virt. eigenvalues --    1.20829   1.20852   1.21317   1.21760   1.21919
 Alpha virt. eigenvalues --    1.22226   1.22841   1.23161   1.23464   1.23683
 Alpha virt. eigenvalues --    1.23949   1.24066   1.24479   1.24763   1.25433
 Alpha virt. eigenvalues --    1.25714   1.26125   1.26386   1.26570   1.26933
 Alpha virt. eigenvalues --    1.27197   1.27620   1.27750   1.28207   1.28313
 Alpha virt. eigenvalues --    1.28712   1.28770   1.29064   1.29384   1.29632
 Alpha virt. eigenvalues --    1.29701   1.30199   1.30621   1.30906   1.31065
 Alpha virt. eigenvalues --    1.31801   1.31851   1.32132   1.32597   1.32724
 Alpha virt. eigenvalues --    1.33160   1.33403   1.33943   1.34240   1.34547
 Alpha virt. eigenvalues --    1.34763   1.35161   1.35411   1.35690   1.35930
 Alpha virt. eigenvalues --    1.36381   1.36445   1.37175   1.38010   1.38511
 Alpha virt. eigenvalues --    1.38841   1.39474   1.39883   1.40125   1.40520
 Alpha virt. eigenvalues --    1.40898   1.41515   1.41640   1.42189   1.42424
 Alpha virt. eigenvalues --    1.43159   1.43959   1.44033   1.44342   1.44671
 Alpha virt. eigenvalues --    1.45296   1.45500   1.45580   1.46419   1.46623
 Alpha virt. eigenvalues --    1.47124   1.47368   1.47516   1.47791   1.48211
 Alpha virt. eigenvalues --    1.49230   1.49542   1.49971   1.50140   1.50401
 Alpha virt. eigenvalues --    1.50621   1.51004   1.51411   1.51644   1.52450
 Alpha virt. eigenvalues --    1.52562   1.52976   1.53280   1.53776   1.54112
 Alpha virt. eigenvalues --    1.54599   1.54917   1.55080   1.55525   1.55899
 Alpha virt. eigenvalues --    1.56225   1.56453   1.56681   1.57092   1.57337
 Alpha virt. eigenvalues --    1.57518   1.57988   1.58366   1.58696   1.59167
 Alpha virt. eigenvalues --    1.59289   1.59808   1.60137   1.60626   1.61197
 Alpha virt. eigenvalues --    1.61490   1.61731   1.61959   1.62429   1.62618
 Alpha virt. eigenvalues --    1.62914   1.63100   1.63297   1.63763   1.64146
 Alpha virt. eigenvalues --    1.64297   1.64825   1.65182   1.65302   1.65726
 Alpha virt. eigenvalues --    1.66105   1.66815   1.66889   1.67499   1.67656
 Alpha virt. eigenvalues --    1.67952   1.68004   1.68356   1.68768   1.68915
 Alpha virt. eigenvalues --    1.69119   1.69245   1.69868   1.69969   1.70665
 Alpha virt. eigenvalues --    1.70943   1.71099   1.71218   1.71459   1.71877
 Alpha virt. eigenvalues --    1.72113   1.72588   1.73038   1.73368   1.73630
 Alpha virt. eigenvalues --    1.73736   1.74057   1.74100   1.74763   1.75331
 Alpha virt. eigenvalues --    1.75583   1.75860   1.76129   1.76560   1.76978
 Alpha virt. eigenvalues --    1.77189   1.77383   1.78261   1.78537   1.78995
 Alpha virt. eigenvalues --    1.79283   1.79837   1.79897   1.80411   1.81011
 Alpha virt. eigenvalues --    1.81354   1.81449   1.82181   1.82396   1.82550
 Alpha virt. eigenvalues --    1.83220   1.83528   1.83946   1.84098   1.84662
 Alpha virt. eigenvalues --    1.85059   1.85316   1.86554   1.86845   1.87120
 Alpha virt. eigenvalues --    1.87344   1.87899   1.88134   1.88488   1.89325
 Alpha virt. eigenvalues --    1.89598   1.90132   1.90782   1.91349   1.92077
 Alpha virt. eigenvalues --    1.92229   1.92689   1.93047   1.93741   1.93844
 Alpha virt. eigenvalues --    1.94460   1.94911   1.95266   1.95753   1.96136
 Alpha virt. eigenvalues --    1.96673   1.96937   1.97355   1.97527   1.98123
 Alpha virt. eigenvalues --    1.98352   1.98449   1.99118   1.99832   2.00187
 Alpha virt. eigenvalues --    2.00475   2.00805   2.01380   2.01764   2.01903
 Alpha virt. eigenvalues --    2.02325   2.02591   2.03165   2.03614   2.04022
 Alpha virt. eigenvalues --    2.04244   2.04455   2.04994   2.05509   2.06046
 Alpha virt. eigenvalues --    2.06247   2.07067   2.07525   2.07690   2.08079
 Alpha virt. eigenvalues --    2.08480   2.08750   2.09037   2.09369   2.09583
 Alpha virt. eigenvalues --    2.09935   2.10476   2.10723   2.11243   2.11414
 Alpha virt. eigenvalues --    2.11627   2.12111   2.12335   2.12693   2.13484
 Alpha virt. eigenvalues --    2.13720   2.13879   2.14227   2.14766   2.14826
 Alpha virt. eigenvalues --    2.15322   2.15476   2.15743   2.16377   2.16756
 Alpha virt. eigenvalues --    2.17084   2.17401   2.17845   2.17864   2.18196
 Alpha virt. eigenvalues --    2.18651   2.18727   2.18877   2.19514   2.19727
 Alpha virt. eigenvalues --    2.19851   2.20011   2.20622   2.20906   2.20968
 Alpha virt. eigenvalues --    2.21436   2.21599   2.22400   2.22736   2.23345
 Alpha virt. eigenvalues --    2.23487   2.23550   2.23716   2.24112   2.24182
 Alpha virt. eigenvalues --    2.24824   2.25592   2.25767   2.25990   2.26781
 Alpha virt. eigenvalues --    2.27018   2.27496   2.28036   2.28618   2.28792
 Alpha virt. eigenvalues --    2.29199   2.29661   2.29920   2.30780   2.31037
 Alpha virt. eigenvalues --    2.31220   2.31480   2.31558   2.31977   2.33229
 Alpha virt. eigenvalues --    2.33946   2.34394   2.34929   2.35872   2.36063
 Alpha virt. eigenvalues --    2.36983   2.37340   2.38176   2.38782   2.39182
 Alpha virt. eigenvalues --    2.39486   2.39667   2.40213   2.40562   2.40962
 Alpha virt. eigenvalues --    2.41187   2.41608   2.42110   2.42911   2.43039
 Alpha virt. eigenvalues --    2.43449   2.43524   2.44421   2.44552   2.45371
 Alpha virt. eigenvalues --    2.45481   2.45701   2.46336   2.46910   2.47103
 Alpha virt. eigenvalues --    2.47637   2.47775   2.48319   2.48873   2.48939
 Alpha virt. eigenvalues --    2.49198   2.49520   2.49849   2.50411   2.50708
 Alpha virt. eigenvalues --    2.51089   2.51653   2.52088   2.53047   2.53236
 Alpha virt. eigenvalues --    2.53340   2.54005   2.54752   2.54931   2.55186
 Alpha virt. eigenvalues --    2.55403   2.55790   2.56084   2.56795   2.57059
 Alpha virt. eigenvalues --    2.57440   2.58032   2.58204   2.58709   2.59226
 Alpha virt. eigenvalues --    2.59318   2.59578   2.59927   2.60512   2.60554
 Alpha virt. eigenvalues --    2.61291   2.61672   2.61865   2.62434   2.62752
 Alpha virt. eigenvalues --    2.62903   2.63026   2.63518   2.63590   2.63975
 Alpha virt. eigenvalues --    2.64166   2.64514   2.64559   2.64986   2.65249
 Alpha virt. eigenvalues --    2.65424   2.65803   2.66177   2.66331   2.66370
 Alpha virt. eigenvalues --    2.66839   2.66976   2.67180   2.67462   2.67717
 Alpha virt. eigenvalues --    2.67990   2.68383   2.68632   2.68828   2.69151
 Alpha virt. eigenvalues --    2.69279   2.69992   2.70108   2.70320   2.70968
 Alpha virt. eigenvalues --    2.71235   2.71512   2.71905   2.72300   2.72629
 Alpha virt. eigenvalues --    2.72706   2.73009   2.73390   2.73552   2.73966
 Alpha virt. eigenvalues --    2.74543   2.74553   2.74732   2.75368   2.75616
 Alpha virt. eigenvalues --    2.75883   2.76478   2.76566   2.76934   2.77084
 Alpha virt. eigenvalues --    2.77493   2.77770   2.77848   2.78326   2.78524
 Alpha virt. eigenvalues --    2.78674   2.79028   2.79343   2.79767   2.80231
 Alpha virt. eigenvalues --    2.80334   2.80685   2.80899   2.81208   2.81730
 Alpha virt. eigenvalues --    2.81991   2.82234   2.82594   2.82741   2.83090
 Alpha virt. eigenvalues --    2.83298   2.83738   2.84013   2.84673   2.84795
 Alpha virt. eigenvalues --    2.85233   2.85274   2.85619   2.86036   2.86342
 Alpha virt. eigenvalues --    2.86568   2.86996   2.87241   2.87422   2.87727
 Alpha virt. eigenvalues --    2.87880   2.88300   2.88757   2.88988   2.89275
 Alpha virt. eigenvalues --    2.89502   2.89906   2.90456   2.90654   2.90957
 Alpha virt. eigenvalues --    2.91222   2.91917   2.92313   2.92525   2.92674
 Alpha virt. eigenvalues --    2.93468   2.93534   2.93588   2.93850   2.94431
 Alpha virt. eigenvalues --    2.94452   2.95242   2.95503   2.96454   2.96673
 Alpha virt. eigenvalues --    2.96871   2.97734   2.97996   2.98432   2.98857
 Alpha virt. eigenvalues --    2.99544   3.00350   3.00663   3.01647   3.01919
 Alpha virt. eigenvalues --    3.02740   3.03153   3.03804   3.04588   3.04945
 Alpha virt. eigenvalues --    3.05928   3.06049   3.06659   3.07031   3.07538
 Alpha virt. eigenvalues --    3.07718   3.08227   3.08516   3.08641   3.09520
 Alpha virt. eigenvalues --    3.09930   3.10467   3.10801   3.11102   3.11880
 Alpha virt. eigenvalues --    3.11969   3.12446   3.12743   3.12926   3.13132
 Alpha virt. eigenvalues --    3.13297   3.13876   3.13982   3.14677   3.15092
 Alpha virt. eigenvalues --    3.15238   3.15545   3.15801   3.16138   3.16369
 Alpha virt. eigenvalues --    3.16580   3.16759   3.16946   3.17226   3.17429
 Alpha virt. eigenvalues --    3.17780   3.18265   3.18632   3.18730   3.19044
 Alpha virt. eigenvalues --    3.19404   3.19843   3.20218   3.20315   3.20589
 Alpha virt. eigenvalues --    3.21038   3.21399   3.21717   3.22205   3.22464
 Alpha virt. eigenvalues --    3.22702   3.23003   3.23326   3.23587   3.24083
 Alpha virt. eigenvalues --    3.24442   3.24522   3.25149   3.25360   3.25923
 Alpha virt. eigenvalues --    3.26365   3.26798   3.26898   3.27254   3.27742
 Alpha virt. eigenvalues --    3.27889   3.28605   3.28647   3.29087   3.29236
 Alpha virt. eigenvalues --    3.29579   3.30134   3.30283   3.30329   3.30480
 Alpha virt. eigenvalues --    3.31316   3.31432   3.31546   3.31931   3.32029
 Alpha virt. eigenvalues --    3.32484   3.33040   3.33104   3.33575   3.33785
 Alpha virt. eigenvalues --    3.34001   3.34690   3.34963   3.35188   3.35271
 Alpha virt. eigenvalues --    3.35411   3.35857   3.35997   3.36301   3.36648
 Alpha virt. eigenvalues --    3.36699   3.36939   3.37444   3.37995   3.38057
 Alpha virt. eigenvalues --    3.38387   3.38652   3.38907   3.39138   3.39624
 Alpha virt. eigenvalues --    3.39907   3.40034   3.40649   3.40782   3.41191
 Alpha virt. eigenvalues --    3.41254   3.41565   3.41754   3.41926   3.42076
 Alpha virt. eigenvalues --    3.42362   3.42940   3.43240   3.43584   3.43970
 Alpha virt. eigenvalues --    3.44160   3.44427   3.45149   3.45174   3.45465
 Alpha virt. eigenvalues --    3.46297   3.46564   3.46638   3.46894   3.47107
 Alpha virt. eigenvalues --    3.47449   3.47651   3.47974   3.48319   3.48573
 Alpha virt. eigenvalues --    3.48947   3.49150   3.49459   3.49717   3.49900
 Alpha virt. eigenvalues --    3.50325   3.50446   3.50569   3.51279   3.51776
 Alpha virt. eigenvalues --    3.52336   3.52384   3.52588   3.52814   3.52972
 Alpha virt. eigenvalues --    3.53401   3.53722   3.53996   3.54306   3.54432
 Alpha virt. eigenvalues --    3.54812   3.55011   3.55187   3.55640   3.55756
 Alpha virt. eigenvalues --    3.56282   3.56656   3.56991   3.57141   3.57449
 Alpha virt. eigenvalues --    3.57956   3.58469   3.58595   3.58855   3.59396
[...]
                                                    237(r),1183(r),763(r),221(v)
                                                    1228(r),173(g),183(g)
                                                    1207(r),1021(r),876(v)
                                                    1047(r),1556(r),1473(v)
                                                    1386(r),624(v),862(v),192(g)
                                                    480(v),340(r),1175(r)
                                                    1488(v),1387(r),1180(r)
                                                    348(r),654(r),1332(r)
                                                    1202(r),880(v),629(v)
                                                    1029(r),896(r),1553(r)
                                                    1098(r),364(r),1227(r)
                                                    222(v),1501(v),219(v)
                                                    1503(v),894(r),216(v)
                                                    1209(r),657(r),653(r)
                                                    1457(g),600(r),602(r)
                                                    1337(r),1229(r),1082(r)
                                                    599(r),1054(r),238(r),601(r)
                                                    472(v),655(r),1211(r)
                                                    1053(r),664(r)
  1519. BD*(   1) C   2 - C   3          0.02158     0.49908   
  1520. BD*(   1) C   2 - C   7          0.03468     0.49787   
  1521. BD*(   2) C   2 - C   7          0.40055     0.00034  1523(v),1528(v),1516(v)
                                                    1558(r),1586(r),1517(v)
                                                    211(g)
  1522. BD*(   1) C   3 - C   4          0.01477     0.52308   
  1523. BD*(   2) C   3 - C   4          0.31450     0.00990  1528(v),1521(v),262(g)
                                                    1544(r)
  1524. BD*(   1) C   3 - H  24          0.01466     0.39441   
  1525. BD*(   1) C   4 - C   5          0.01317     0.51644   
  1526. BD*(   1) C   4 - H  26          0.01320     0.38605   
  1527. BD*(   1) C   5 - C   6          0.02042     0.51743   
  1528. BD*(   2) C   5 - C   6          0.33705     0.01355  1523(v),1521(v),1588(r)
                                                    1586(r),1535(v),288(g)
  1529. BD*(   1) C   5 - H  25          0.01474     0.38644   
  1530. BD*(   1) C   6 - C   7          0.03788     0.49785   
  1531. BD*(   1) C   6 - C   9          0.03809     0.33962   
  1532. BD*(   1) C   7 - O   8          0.03395     0.32416   
  1533. BD*(   1) O   8 - C  46          0.03440     0.31580   
  1534. BD*(   1) C   9 - C  10          0.01858     0.32175   
  1535. BD*(   1) C   9 - C  11          0.02741     0.30180   
  1536. BD*(   1) C   9 - C  45          0.03814     0.34543   
  1537. BD*(   1) C  10 - H  27          0.00668     0.35850   
  1538. BD*(   1) C  10 - H  28          0.00690     0.35789   
  1539. BD*(   1) C  10 - H  62          0.00683     0.35874   
  1540. BD*(   1) C  11 - H  29          0.00613     0.37711   
  1541. BD*(   1) C  11 - H  30          0.00705     0.36309   
  1542. BD*(   1) C  11 - H  63          0.00694     0.36421   
  1543. BD*(   1) C  12 - C  13          0.02839     0.51852   
  1544. BD*(   2) C  12 - C  13          0.36598     0.01059  1549(v),1554(v),1588(r)
                                                    495(g),1517(v),1523(r)
                                                    1598(r)
  1545. BD*(   1) C  12 - C  17          0.02338     0.50214   
  1546. BD*(   1) C  13 - C  14          0.01597     0.52742   
  1547. BD*(   1) C  13 - H  35          0.01673     0.40597   
  1548. BD*(   1) C  14 - C  15          0.01473     0.52295   
  1549. BD*(   2) C  14 - C  15          0.32230     0.01233  1544(v),1554(v),1593(r)
                                                    548(g),522(g)
  1550. BD*(   1) C  14 - H  36          0.01358     0.39278   
  1551. BD*(   1) C  15 - C  16          0.01471     0.52141   
  1552. BD*(   1) C  15 - H  37          0.01313     0.39277   
  1553. BD*(   1) C  16 - C  17          0.01641     0.53207   
  1554. BD*(   2) C  16 - C  17          0.30799     0.01509  1549(v),1544(v),574(g)
                                                    1598(r),600(g)
  1555. BD*(   1) C  16 - H  38          0.01351     0.39342   
  1556. BD*(   1) C  17 - H  39          0.01474     0.41246   
  1557. BD*(   1) C  18 - C  19          0.02538     0.52712   
  1558. BD*(   2) C  18 - C  19          0.36948     0.02269  1563(v),1568(v),1515(v)
                                                    652(g),1521(r)
  1559. BD*(   1) C  18 - C  23          0.02323     0.52069   
  1560. BD*(   1) C  19 - C  21          0.01525     0.53872   
  1561. BD*(   1) C  19 - H  31          0.01540     0.41010   
  1562. BD*(   1) C  20 - C  21          0.01441     0.54004   
  1563. BD*(   2) C  20 - C  21          0.31920     0.02743  1558(v),1568(v),678(g)
                                                    704(g)
  1564. BD*(   1) C  20 - C  22          0.01454     0.53639   
  1565. BD*(   1) C  20 - H  32          0.01289     0.40526   
  1566. BD*(   1) C  21 - H  74          0.01334     0.40249   
  1567. BD*(   1) C  22 - C  23          0.01534     0.55077   
  1568. BD*(   2) C  22 - C  23          0.29029     0.03629  1563(v),1558(v),730(g)
  1569. BD*(   1) C  22 - H  33          0.01333     0.40563   
  1570. BD*(   1) C  23 - H  34          0.01422     0.42106   
  1571. BD*(   1) P  40 - C  41          0.07303     0.19213   
  1572. BD*(   1) P  40 - C  47          0.08974     0.20055   
  1573. BD*(   1) P  40 - C  53          0.06483     0.20547   
  1574. BD*(   1) P  40 -Pd  75          0.16874     0.63808  1518(g),835(r),1452(g)
                                                    860(g),1441(g),180(v)
                                                    1450(g),1451(g),1440(g)
                                                    1443(g),1446(g),1442(g)
                                                    1448(g),1455(g),1453(g)
                                                    1447(g),1445(g),1454(g)
                                                    1444(g),1437(g),1463(v)
                                                    830(r),1491(v),1436(g)
                                                    469(r),189(v),1449(g)
                                                    1201(v),626(r),868(g)
                                                    1615(g),869(g),888(v),870(g)
                                                    1492(v),889(v),1045(v)
                                                    866(g),208(r),209(r),211(r)
                                                    1493(v),1356(r),1019(r)
                                                    188(v),1464(v),341(r),815(r)
                                                    495(r),187(v),1205(v),473(r)
                                                    625(r),865(g),1177(r),867(g)
                                                    1488(v),1467(v),365(r)
                                                    1044(v),1461(v),339(r)
                                                    193(v),185(v),1381(r)
                                                    1230(r),181(v),1071(r)
                                                    893(v),873(g),1046(v)
                                                    1334(r),1438(g),1465(v)
                                                    1023(r),182(v),343(r)
                                                    1462(v),1047(v),184(v)
                                                    1200(v),1466(v),191(v)
                                                    624(r),183(v),210(r),470(r)
                                                    236(r),237(r),1387(r),213(r)
                                                    468(r),628(r),600(r),471(r)
                                                    876(g),481(r),497(r),763(r)
                                                    1207(v),1332(r),1183(r)
                                                    757(r),1029(r),1228(r)
                                                    634(r),496(r),1473(v)
                                                    1054(v),478(r),890(v)
                                                    1202(v),218(r),1411(r)
                                                    364(r),1175(r),192(v),346(r)
                                                    1180(r),173(g),340(r)
                                                    1494(v),1503(v),222(r)
                                                    894(v),1082(r),348(r)
                                                    1487(v),1229(r),1501(v)
                                                    221(r),862(g),654(r),629(r)
                                                    1227(r),480(r),1056(v)
                                                    653(r),216(r),1211(v)
                                                    1053(v),1614(r),1206(v)
                                                    780(r),1543(r),1505(v)
                                                    1386(r),896(v),657(r),916(r)
                                                    664(r),1458(g),1098(r)
                                                    1612(r),655(r),1416(r)
                                                    351(r),599(r),633(r),1209(v)
                                                    1021(r),1072(r),601(r)
                                                    731(r)
  1575. BD*(   1) C  41 - C  42          0.02187     0.51520   
  1576. BD*(   2) C  41 - C  42          0.37223     0.00955  1581(v),1586(v),1572(v)
                                                    915(g)
  1577. BD*(   1) C  41 - C  46          0.03248     0.49807   
  1578. BD*(   1) C  42 - C  43          0.01408     0.52275   
  1579. BD*(   1) C  42 - H  59          0.01548     0.39789   
  1580. BD*(   1) C  43 - C  44          0.01282     0.52060   
  1581. BD*(   2) C  43 - C  44          0.33986     0.01093  1576(v),1586(v),942(g)
                                                    968(g)
  1582. BD*(   1) C  43 - H  61          0.01292     0.39157   
  1583. BD*(   1) C  44 - C  45          0.02096     0.51699   
  1584. BD*(   1) C  44 - H  60          0.01459     0.38989   
  1585. BD*(   1) C  45 - C  46          0.03855     0.50827   
  1586. BD*(   2) C  45 - C  46          0.37829     0.01271  1581(v),1576(v),1528(r)
                                                    1535(v),1521(r),1531(v)
                                                    1532(v),968(v)
  1587. BD*(   1) C  47 - C  48          0.02607     0.51591   
  1588. BD*(   2) C  47 - C  48          0.36845     0.01355  1593(v),1598(v),1528(r)
                                                    1544(r),1071(g),1603(r)
                                                    1605(r),1573(v),1098(v)
  1589. BD*(   1) C  47 - C  52          0.02423     0.50872   
  1590. BD*(   1) C  48 - C  49          0.01599     0.52945   
  1591. BD*(   1) C  48 - H  66          0.01696     0.40797   
  1592. BD*(   1) C  49 - C  50          0.01470     0.52884   
  1593. BD*(   2) C  49 - C  50          0.32184     0.01612  1588(v),1598(v),1549(r)
                                                    1124(g),1098(g)
  1594. BD*(   1) C  49 - H  67          0.01362     0.39278   
  1595. BD*(   1) C  50 - C  51          0.01503     0.52621   
  1596. BD*(   1) C  50 - H  68          0.01325     0.39497   
  1597. BD*(   1) C  51 - C  52          0.01607     0.53906   
  1598. BD*(   2) C  51 - C  52          0.30027     0.02295  1593(v),1588(v),1605(r)
                                                    1603(r),1150(g),1554(r)
                                                    1544(r)
  1599. BD*(   1) C  51 - H  69          0.01382     0.39480   
  1600. BD*(   1) C  52 - H  70          0.01539     0.40838   
  1601. BD*(   1) C  53 - C  54          0.02642     0.50389   
  1602. BD*(   1) C  53 - C  58          0.02377     0.52095   
  1603. BD*(   2) C  53 - C  58          0.35250     0.02165  1609(v),1605(v),1598(r)
                                                    1588(r),1332(g),1571(v)
                                                    1572(v)
  1604. BD*(   1) C  54 - C  56          0.01580     0.53508   
  1605. BD*(   2) C  54 - C  56          0.31802     0.01962  1603(v),1609(v),1598(r)
                                                    1280(g),1588(r)
  1606. BD*(   1) C  54 - H  64          0.01506     0.40070   
  1607. BD*(   1) C  55 - C  56          0.01465     0.52830   
  1608. BD*(   1) C  55 - C  57          0.01444     0.53308   
  1609. BD*(   2) C  55 - C  57          0.31461     0.02249  1603(v),1605(v),1254(g)
                                                    1306(g)
  1610. BD*(   1) C  55 - H  72          0.01296     0.39911   
  1611. BD*(   1) C  56 - H  73          0.01361     0.39422   
  1612. BD*(   1) C  57 - C  58          0.01595     0.54133   
  1613. BD*(   1) C  57 - H  71          0.01334     0.40278   
  1614. BD*(   1) C  58 - H  65          0.01725     0.43495   
  1615. BD*(   1)Pd  75 -Cl  76          0.17554     0.19665  1616(g),1574(g),1572(v)
                                                    1573(v),860(v),1450(g)
                                                    1446(g),1445(g),1449(g)
                                                    1452(g),1448(g),1440(g)
                                                    180(v),1447(g),1455(g)
                                                    1453(g),1441(g),173(g)
                                                    1461(g),1443(g),1442(g)
                                                    868(v),1517(v),1571(v)
                                                    1451(g),189(v),1045(r)
                                                    1463(g),870(v),469(r)
                                                    1614(r),866(v),869(v)
                                                    1201(r),1454(g),185(v)
                                                    830(r),1491(v),626(r)
                                                    1467(g),1019(r),888(r)
                                                    209(r),208(r),1464(g)
                                                    1458(g),1459(g)
  1616. BD*(   1)Pd  75 -Cl  77          0.17332     0.18713  1615(g),1518(g),1517(v)
                                                    180(v),1515(v),1450(g)
                                                    1448(g),1443(g),1445(g)
                                                    1446(g),1449(g),1454(g)
                                                    1451(g),860(v),1447(g)
                                                    1441(g),1442(g),1452(g)
                                                    1455(g),469(r),1453(g)
                                                    1444(g),189(v),208(r)
                                                    1488(g),185(v),1491(g)
                                                    1201(r),1463(v),1492(g)
                                                    889(r),868(v),866(v),1436(g)
                                                    1460(v),1458(g),339(r)
       -------------------------------
              Total Lewis  374.68852  ( 97.5751%)
        Valence non-Lewis    8.64534  (  2.2514%)
        Rydberg non-Lewis    0.66614  (  0.1735%)
       -------------------------------
            Total unit  1  384.00000  (100.0000%)
           Charge unit  1    0.00000
 1\1\GINC-NC014\SP\RPBE1PBE\Gen\C39H32Cl2O1P2Pd1\MACKK4\06-Dec-2021\0\\
 # PBE1PBE gen pseudo=read int=(grid=ultrafine) empiricaldispersion=GD3
 BJ pop=nbo guess=read geom=check\\XantPhos_5 title\\0,1\P,0,-1.4620568
 065,1.4944080069,-3.6695148714\C,0,-2.0736515974,1.6587610823,-1.92210
 04185\C,0,-3.4353258101,1.5234355096,-1.5786023119\C,0,-3.8378306284,1
 .6208308889,-0.2404118302\C,0,-2.9060532225,1.8920370571,0.7780313334\
 C,0,-1.5530699447,2.1001978123,0.4733657466\C,0,-1.1884205097,1.977723
 7204,-0.8800347238\O,0,0.1265045192,2.1804832911,-1.2225212338\C,0,-0.
 4470807834,2.5218006772,1.4652336669\C,0,-0.8206046779,2.1800340757,2.
 9155707045\C,0,-0.2441747491,4.0584157575,1.3322095253\C,0,-1.89400832
 12,-0.1938898718,-4.2478384643\C,0,-2.7877125769,-1.0615183845,-3.5989
 969194\C,0,-3.1416462623,-2.2769002474,-4.2011468611\C,0,-2.6142572183
 ,-2.6290957417,-5.4511669336\C,0,-1.7077665256,-1.7723132398,-6.094109
 7191\C,0,-1.3402467739,-0.5627284191,-5.492661105\C,0,-2.7298573125,2.
 5360849828,-4.507921643\C,0,-3.6690857395,1.9963885922,-5.4035093605\C
 ,0,-4.7170935997,4.1784852283,-5.6253728177\C,0,-4.659352424,2.8205687
 376,-5.9603379591\C,0,-3.7773310044,4.7189080106,-4.7332679214\C,0,-2.
 7835417096,3.9064915853,-4.180462397\H,0,-4.1759616227,1.3481089255,-2
 .3653795559\H,0,-3.2524806888,1.9655754389,1.8132379711\H,0,-4.8946253
 991,1.4975947958,0.0152925816\H,0,-0.9772608056,1.0967300227,3.0525926
 861\H,0,-1.7404173187,2.7088886178,3.2148078968\H,0,0.0361572632,4.336
 3352118,0.3035607255\H,0,-1.1751714519,4.5885718066,1.5966293606\H,0,-
 3.6340143489,0.9362524764,-5.6683898959\H,0,-5.4898189747,4.8193879993
 ,-6.0623765636\H,0,-3.8081332681,5.7830994216,-4.4787842526\H,0,-2.035
 1860929,4.336636891,-3.5090248714\H,0,-3.1934307423,-0.8011445229,-2.6
 177715398\H,0,-3.8301839201,-2.9539536884,-3.6849303819\H,0,-2.9009261
 305,-3.576139966,-5.9199685358\H,0,-1.2821866849,-2.0469071417,-7.0647
 726375\H,0,-0.6260788997,0.1101280162,-5.982790036\P,0,1.7191311091,0.
 3067298024,-2.6328876289\C,0,2.0772917828,0.8873799965,-0.9152262033\C
 ,0,3.0803951315,0.4152277181,-0.0522587774\C,0,2.9764100138,0.65145577
 18,1.3273784673\C,0,1.8550623034,1.3011395258,1.8724191422\C,0,0.85439
 81364,1.8209975053,1.0343240234\C,0,1.0522299302,1.6559962223,-0.34243
 5826\C,0,0.6562307548,-1.1699227674,-2.2592656596\C,0,-0.0561013446,-1
 .3288746252,-1.0563919434\C,0,-0.8323394534,-2.476943089,-0.83816605\C
 ,0,-0.9000036823,-3.4801292894,-1.8120387691\C,0,-0.199767923,-3.32440
 3375,-3.0180059755\C,0,0.5653778387,-2.1767392625,-3.2445458365\C,0,3.
 2160132595,-0.5552250244,-3.2668013858\C,0,3.7039561117,-1.6884026436,
 -2.5790818207\C,0,5.4304434873,-1.9756292446,-4.2616456974\C,0,4.81532
 33089,-2.3847187358,-3.0690758812\C,0,4.9288844716,-0.8706055072,-4.96
 23195374\C,0,3.8273568455,-0.1572152438,-4.4694030094\H,0,3.9213736634
 ,-0.1573968621,-0.4530144244\H,0,1.7663936056,1.3965275889,2.958664726
 3\H,0,3.7616910184,0.2851886714,1.9957044538\H,0,-0.0268459778,2.50876
 24035,3.6061403245\H,0,0.5595969265,4.3918290969,2.0106283553\H,0,3.19
 88306989,-2.0418797098,-1.674545206\H,0,3.4518768136,0.7231130966,-4.9
 971694378\H,0,0.0087655768,-0.5747882665,-0.2679058921\H,0,-1.37353007
 81,-2.5877058506,0.1074102483\H,0,-1.4986223029,-4.3798775981,-1.63618
 29137\H,0,-0.2573515486,-4.0955718867,-3.7922303911\H,0,1.1107531203,-
 2.0671959108,-4.1867587969\H,0,5.3976654514,-0.5531353607,-5.899202066
 6\H,0,6.2949294573,-2.5254380531,-4.6481341688\H,0,5.1922908235,-3.256
 3210447,-2.5239729613\H,0,-5.3862172104,2.3928680889,-6.6586797638\Pd,
 0,0.7953296767,2.0130345081,-3.9194003744\Cl,0,3.0092115056,2.89521070
 78,-3.7117995908\Cl,0,0.2029494624,3.7615852306,-5.3935901889\\Version
 =ES64L-G09RevE.01\State=1-A\HF=-3310.0634734\RMSD=5.211e-09\Dipole=-2.
 2142152,-3.4512773,2.6613755\Quadrupole=2.1824505,-8.2692026,6.086752,
 -14.5003605,3.8890923,18.1685041\PG=C01 [X(C39H32Cl2O1P2Pd1)]\\@


 HE WHO LAUGHS LAST PROBABLY DIDN'T GET THE JOKE.
 Job cpu time:       0 days  2 hours 33 minutes 44.0 seconds.
 File lengths (MBytes):  RWF=   1339 Int=      0 D2E=      0 Chk=    192 Scr=      1
 Normal termination of Gaussian 09 at Mon Dec  6 05:01:21 2021.
