 Entering Gaussian System, Link 0=g09
 Input=XantPhos_3_SPE_NoPd.com
 Output=XantPhos_3_SPE_NoPd.log
 Initial command:
 /gstore/apps/gaussian/g09.e01-foss-2017a/g09/l1.exe "/local/29510743/Gau-4317.inp" -scrdir="/local/29510743/"
 Entering Link 1 = /gstore/apps/gaussian/g09.e01-foss-2017a/g09/l1.exe PID=      4318.
  
 Copyright (c) 1988,1990,1992,1993,1995,1998,2003,2009,2015,
            Gaussian, Inc.  All Rights Reserved.
  
 This is part of the Gaussian(R) 09 program.  It is based on
 the Gaussian(R) 03 system (copyright 2003, Gaussian, Inc.),
 the Gaussian(R) 98 system (copyright 1998, Gaussian, Inc.),
 the Gaussian(R) 94 system (copyright 1995, Gaussian, Inc.),
 the Gaussian 92(TM) system (copyright 1992, Gaussian, Inc.),
 the Gaussian 90(TM) system (copyright 1990, Gaussian, Inc.),
 the Gaussian 88(TM) system (copyright 1988, Gaussian, Inc.),
 the Gaussian 86(TM) system (copyright 1986, Carnegie Mellon
 University), and the Gaussian 82(TM) system (copyright 1983,
 Carnegie Mellon University). Gaussian is a federally registered
 trademark of Gaussian, Inc.
  
 This software contains proprietary and confidential information,
 including trade secrets, belonging to Gaussian, Inc.
  
 This software is provided under written license and may be
 used, copied, transmitted, or stored only in accord with that
 written license.
  
 The following legend is applicable only to US Government
 contracts under FAR:
  
                    RESTRICTED RIGHTS LEGEND
  
 Use, reproduction and disclosure by the US Government is
 subject to restrictions as set forth in subparagraphs (a)
 and (c) of the Commercial Computer Software - Restricted
 Rights clause in FAR 52.227-19.
  
 Gaussian, Inc.
 340 Quinnipiac St., Bldg. 40, Wallingford CT 06492
  
  
 ---------------------------------------------------------------
 Warning -- This program may not be used in any manner that
 competes with the business of Gaussian, Inc. or will provide
 assistance to any competitor of Gaussian, Inc.  The licensee
 of this program is prohibited from giving any competitor of
 Gaussian, Inc. access to this program.  By using this program,
 the user acknowledges that Gaussian, Inc. is engaged in the
 business of creating and licensing software in the field of
 computational chemistry and represents and warrants to the
 licensee that it is not a competitor of Gaussian, Inc. and that
 it will not use this program in any manner prohibited above.
 ---------------------------------------------------------------
  

 Cite this work as:
 Gaussian 09, Revision E.01,
 M. J. Frisch, G. W. Trucks, H. B. Schlegel, G. E. Scuseria, 
 M. A. Robb, J. R. Cheeseman, G. Scalmani, V. Barone, B. Mennucci, 
 G. A. Petersson, H. Nakatsuji, M. Caricato, X. Li, H. P. Hratchian, 
 A. F. Izmaylov, J. Bloino, G. Zheng, J. L. Sonnenberg, M. Hada, 
 M. Ehara, K. Toyota, R. Fukuda, J. Hasegawa, M. Ishida, T. Nakajima, 
 Y. Honda, O. Kitao, H. Nakai, T. Vreven, J. A. Montgomery, Jr., 
 J. E. Peralta, F. Ogliaro, M. Bearpark, J. J. Heyd, E. Brothers, 
 K. N. Kudin, V. N. Staroverov, T. Keith, R. Kobayashi, J. Normand, 
 K. Raghavachari, A. Rendell, J. C. Burant, S. S. Iyengar, J. Tomasi, 
 M. Cossi, N. Rega, J. M. Millam, M. Klene, J. E. Knox, J. B. Cross, 
 V. Bakken, C. Adamo, J. Jaramillo, R. Gomperts, R. E. Stratmann, 
 O. Yazyev, A. J. Austin, R. Cammi, C. Pomelli, J. W. Ochterski, 
 R. L. Martin, K. Morokuma, V. G. Zakrzewski, G. A. Voth, 
 P. Salvador, J. J. Dannenberg, S. Dapprich, A. D. Daniels, 
 O. Farkas, J. B. Foresman, J. V. Ortiz, J. Cioslowski, 
 and D. J. Fox, Gaussian, Inc., Wallingford CT, 2013.
 
 ******************************************
 Gaussian 09:  ES64L-G09RevE.01 30-Nov-2015
                12-Feb-2022 
 ******************************************
 %nprocs=28
 Will use up to   28 processors via shared memory.
 %mem=128GB
 %chk=XantPhos_3_SPE_NoPd.chk
 ----------------------------------------------------------------------
 # PBE1PBE/def2TZVP int=(grid=ultrafine) empiricaldispersion=GD3BJ nmr=
 giao
 ----------------------------------------------------------------------
 1/38=1/1;
 2/12=2,17=6,18=5,40=1/2;
 3/5=44,7=101,11=2,16=1,25=1,30=1,74=-13,75=-5,124=41/1,2,8,3;
 4//1;
 5/5=2,38=5/2;
 8/6=1,10=90,11=11/1;
 10/13=100,45=16/2;
 6/7=2,8=2,9=2,10=2,28=1/1;
 99/9=1/99;
 ----------------
 XantPhos_3 title
 ----------------
 Symbolic Z-matrix:
 Charge =  0 Multiplicity = 1
 P                    -1.61395   1.79158  -3.51259 
 C                    -1.97545   2.59969  -1.89062 
 C                    -3.23971   3.11071  -1.53435 
 C                    -3.5079    3.43609  -0.19778 
 C                    -2.54513   3.22447   0.80454 
 C                    -1.26796   2.74169   0.48024 
 C                    -1.01542   2.49341  -0.87823 
 O                     0.22288   2.02524  -1.26476 
 C                    -0.12873   2.42995   1.46379 
 C                    -0.64176   2.26646   2.90214 
 C                     0.90101   3.59482   1.41595 
 C                    -2.278     0.09105  -3.27939 
 C                    -2.12663  -0.80195  -4.36275 
 C                    -2.6745   -2.08694  -4.2947 
 C                    -3.34179  -2.50575  -3.13347 
 C                    -3.46192  -1.63473  -2.04253 
 C                    -2.94086  -0.33399  -2.11432 
 C                    -2.88508   2.61241  -4.55943 
 C                    -2.79789   4.00995  -4.73515 
 C                    -4.84928   3.97823  -6.03663 
 C                    -3.78109   4.68619  -5.46413 
 C                    -4.93491   2.59086  -5.86895 
 C                    -3.95886   1.90662  -5.12876 
 H                    -4.01494   3.21714  -2.29822 
 H                    -2.80189   3.43401   1.84716 
 H                    -4.49302   3.82691   0.07468 
 H                    -1.37608   1.4475    2.98404 
 H                    -1.11545   3.19851   3.25176 
 H                     1.28815   3.74354   0.39536 
 H                     0.42518   4.5338    1.74692 
 H                    -1.9568    4.56213  -4.30798 
 H                    -5.61246   4.5098   -6.61432 
 H                    -5.76644   2.03191  -6.31043 
 H                    -4.04153   0.825    -4.99289 
 H                    -1.57449  -0.4809   -5.25357 
 H                    -2.55029  -2.77245  -5.13807 
 H                    -3.75593  -3.51757  -3.07535 
 H                    -3.97263  -1.96234  -1.13086 
 H                    -3.05829   0.34993  -1.26856 
 P                     1.47933  -0.10109  -2.93319 
 C                     1.32226  -0.05753  -1.08211 
 C                     1.87675  -1.05508  -0.25199 
 C                     1.74323  -0.97028   1.13829 
 C                     1.07844   0.11651   1.73418 
 C                     0.5601    1.15341   0.94726 
 C                     0.7162    1.02984  -0.4461 
 C                     0.91351  -1.78748  -3.39382 
 C                     0.23493  -2.64341  -2.50794 
 C                    -0.17097  -3.91549  -2.93487 
 C                     0.0902   -4.33871  -4.24459 
 C                     0.74607  -3.47667  -5.13795 
 C                     1.15283  -2.20347  -4.72256 
 C                     3.31968  -0.19669  -2.98315 
 C                     4.04687   1.00147  -2.84883 
 C                     6.11933  -0.26383  -2.78557 
 C                     5.44041   0.96464  -2.74665 
 C                     5.39739  -1.45524  -2.92697 
 C                     3.99767  -1.42654  -3.0221 
 H                     2.40781  -1.89952  -0.70118 
 H                     0.98176   0.15416   2.82321 
 H                     2.16474  -1.75791   1.77028 
 H                     0.19429   2.05789   3.58968 
 H                     1.75242   3.3744    2.08224 
 H                     3.51869   1.96048  -2.85885 
 H                     3.43846  -2.35931  -3.14371 
 H                     0.00832  -2.31658  -1.48978 
 H                    -0.7026   -4.57261  -2.23882 
 H                    -0.22446  -5.33488  -4.57311 
 H                     0.94294  -3.79526  -6.16687 
 H                     1.65314  -1.51916  -5.41839 
 H                     5.92201  -2.41553  -2.97052 
 H                     7.21157  -0.28907  -2.71504 
 H                     6.00105   1.90043  -2.65458 
 H                    -3.70343   5.76975  -5.59842 
 
 Stoichiometry    C39H32OP2
 Framework group  C1[X(C39H32OP2)]
 Deg. of freedom   216
 Full point group                 C1      NOp   1
 Largest Abelian subgroup         C1      NOp   1
 Largest concise Abelian subgroup C1      NOp   1
                         Standard orientation:                         
 ---------------------------------------------------------------------
 Center     Atomic      Atomic             Coordinates (Angstroms)
 Number     Number       Type             X           Y           Z
 ---------------------------------------------------------------------
      1         15           0        1.902937   -0.518196    0.907148
      2          6           0        2.326521    1.196444    0.363946
      3          6           0        3.599257    1.577320   -0.106708
      4          6           0        3.759154    2.802446   -0.768317
      5          6           0        2.658752    3.644672   -1.005211
      6          6           0        1.383048    3.307664   -0.527287
      7          6           0        1.277373    2.105938    0.190728
      8          8           0        0.052707    1.720713    0.694487
      9          6           0        0.085904    4.105539   -0.735169
     10          6           0        0.204292    5.098802   -1.900571
     11          6           0       -0.232321    4.885133    0.572715
     12          6           0        1.617657   -1.393456   -0.686495
     13          6           0        1.242534   -2.752330   -0.604314
     14          6           0        1.085006   -3.508519   -1.770234
     15          6           0        1.260569   -2.908048   -3.026324
     16          6           0        1.596967   -1.550591   -3.112331
     17          6           0        1.785761   -0.792709   -1.946765
     18          6           0        3.568904   -1.100180    1.427973
     19          6           0        4.195175   -0.439254    2.506191
     20          6           0        6.166170   -1.830645    2.219350
     21          6           0        5.489914   -0.800635    2.891474
     22          6           0        5.544807   -2.492086    1.153219
     23          6           0        4.250467   -2.127259    0.752802
     24          1           0        4.447238    0.898014    0.016908
     25          1           0        2.803126    4.567939   -1.574090
     26          1           0        4.748212    3.090890   -1.137104
     27          1           0        0.428736    4.588206   -2.852180
     28          1           0        1.000217    5.835132   -1.701433
     29          1           0       -0.320496    4.202443    1.432798
     30          1           0        0.571944    5.609941    0.785928
     31          1           0        3.664168    0.349656    3.045140
     32          1           0        7.176386   -2.116984    2.529532
     33          1           0        6.066767   -3.294941    0.622395
     34          1           0        3.778872   -2.641245   -0.088980
     35          1           0        1.073127   -3.206854    0.378642
     36          1           0        0.792150   -4.559926   -1.696684
     37          1           0        1.120903   -3.497124   -3.938551
     38          1           0        1.724033   -1.076453   -4.091281
     39          1           0        2.071622    0.260788   -2.019428
     40         15           0       -1.766314   -0.637349    0.813937
     41          6           0       -1.924869    0.862672   -0.271352
     42          6           0       -3.022312    1.057771   -1.136938
     43          6           0       -3.102997    2.211398   -1.924675
     44          6           0       -2.110161    3.204993   -1.852626
     45          6           0       -1.032266    3.072753   -0.967332
     46          6           0       -0.989117    1.898236   -0.192909
     47          6           0       -2.011389   -2.051515   -0.333374
     48          6           0       -1.989317   -1.922922   -1.733678
     49          6           0       -2.178661   -3.050795   -2.544400
     50          6           0       -2.384089   -4.310533   -1.966882
     51          6           0       -2.382409   -4.445271   -0.569312
     52          6           0       -2.191306   -3.325984    0.249065
     53          6           0       -3.387199   -0.445723    1.670993
     54          6           0       -3.460081    0.453234    2.752191
     55          6           0       -5.861874    0.111698    2.873852
     56          6           0       -4.694145    0.731880    3.346474
     57          6           0       -5.789064   -0.788373    1.803696
     58          6           0       -4.554791   -1.066855    1.197000
     59          1           0       -3.808583    0.299190   -1.193627
     60          1           0       -2.193987    4.093618   -2.485132
     61          1           0       -3.951484    2.343917   -2.602868
     62          1           0       -0.732108    5.667999   -2.020366
     63          1           0       -1.184021    5.432808    0.464348
     64          1           0       -2.543188    0.904930    3.144692
     65          1           0       -4.501095   -1.779434    0.368200
     66          1           0       -1.810378   -0.948501   -2.195538
     67          1           0       -2.155256   -2.940807   -3.633561
     68          1           0       -2.536108   -5.188566   -2.603463
     69          1           0       -2.529973   -5.428371   -0.110318
     70          1           0       -2.174745   -3.425294    1.341138
     71          1           0       -6.694409   -1.284747    1.438655
     72          1           0       -6.825757    0.324396    3.347441
     73          1           0       -4.742593    1.422455    4.194569
     74          1           0        5.966496   -0.285056    3.731249
 ---------------------------------------------------------------------
 Rotational constants (GHZ):      0.0987736      0.0724826      0.0568755
 Standard basis: def2TZVP (5D, 7F)
 There are  1716 symmetry adapted cartesian basis functions of A   symmetry.
 There are  1506 symmetry adapted basis functions of A   symmetry.
  1506 basis functions,  2434 primitive gaussians,  1716 cartesian basis functions
   152 alpha electrons      152 beta electrons
       nuclear repulsion energy      5294.1534316001 Hartrees.
 NAtoms=   74 NActive=   74 NUniq=   74 SFac= 1.00D+00 NAtFMM=   60 NAOKFM=T Big=T
 Integral buffers will be    131072 words long.
 Raffenetti 2 integral format.
 Two-electron integral symmetry is turned on.
 Nuclear repulsion after empirical dispersion term =     5294.0319794864 Hartrees.
 One-electron integrals computed using PRISM.
   1 Symmetry operations used in ECPInt.
 ECPInt:  NShTT=  176715 NPrTT=  548629 LenC2=  138578 LenP2D=  283995.
 LDataN:  DoStor=T MaxTD1= 6 Len=  172
 NBasis=  1506 RedAO= T EigKep=  4.05D-06  NBF=  1506
 NBsUse=  1506 1.00D-06 EigRej= -1.00D+00 NBFU=  1506
 ExpMin= 9.04D-02 ExpMax= 5.24D+04 ExpMxC= 1.79D+03 IAcc=3 IRadAn=         5 AccDes= 0.00D+00
 Harris functional with IExCor= 1009 and IRadAn=       5 diagonalized for initial guess.
 HarFok:  IExCor= 1009 AccDes= 0.00D+00 IRadAn=         5 IDoV= 1 UseB2=F ITyADJ=14
 ICtDFT=  3500011 ScaDFX=  1.000000  1.000000  1.000000  1.000000
 FoFCou: FMM=F IPFlag=           0 FMFlag=      100000 FMFlg1=        2001
         NFxFlg=           0 DoJE=T BraDBF=F KetDBF=T FulRan=T
         wScrn=  0.000000 ICntrl=     500 IOpCl=  0 I1Cent=   200000004 NGrid=           0
         NMat0=    1 NMatS0=      1 NMatT0=    0 NMatD0=    1 NMtDS0=    0 NMtDT0=    0
 Petite list used in FoFCou.
 Requested convergence on RMS density matrix=1.00D-08 within 128 cycles.
 Requested convergence on MAX density matrix=1.00D-06.
 Requested convergence on             energy=1.00D-06.
 No special actions if energy rises.
 Integral accuracy reduced to 1.0D-05 until final iterations.
 Problem detected with inexpensive integrals.
 Switching to full accuracy and repeating last cycle.
 SCF Done:  E(RPBE1PBE) =  -2261.89489501     A.U. after   15 cycles
            NFock= 15  Conv=0.75D-08     -V/T= 2.0048
 DoSCS=F DFT=T ScalE2(SS,OS)=  1.000000  1.000000
 Range of M.O.s used for correlation:     1  1506
 NBasis=  1506 NAE=   152 NBE=   152 NFC=     0 NFV=     0
 NROrb=   1506 NOA=   152 NOB=   152 NVA=  1354 NVB=  1354

 **** Warning!!: The largest alpha MO coefficient is  0.41492236D+02

          Differentiating once with respect to magnetic field using GIAOs.
          Electric field/nuclear overlap derivatives assumed to be zero.
 FoFCou: FMM=F IPFlag=           0 FMFlag=      100000 FMFlg1=        2001
         NFxFlg=           0 DoJE=F BraDBF=F KetDBF=T FulRan=T
         wScrn=  0.000000 ICntrl=    6100 IOpCl=  0 I1Cent=           7 NGrid=          74
         NMat0=    1 NMatS0=      1 NMatT0=    0 NMatD0=    1 NMtDS0=    0 NMtDT0=    0
 Symmetry not used in FoFCou.
   1 Symmetry operations used in ECPInt.
 ECPInt:  NShTT=  176715 NPrTT=  548629 LenC2=  176716 LenP2D=  548629.
 LDataN:  DoStor=T MaxTD1= 7 Len=  274
 FoFJK:  IHMeth= 1 ICntrl=    6127 DoSepK=F KAlg= 0 I1Cent=   0 FoldK=F
 IRaf=         1 NMat=   1 IRICut=       1 DoRegI=T DoRafI=F ISym2E= 0.
          There are     3 degrees of freedom in the 1st order CPHF.  IDoFFX=0 NUNeed=     3.
      3 vectors produced by pass  0 Test12= 6.86D-12 3.33D-08 XBig12= 1.66D+02 1.79D+00.
 AX will form     3 AO Fock derivatives at one time.
      3 vectors produced by pass  1 Test12= 6.86D-12 3.33D-08 XBig12= 7.19D-01 1.82D-01.
      3 vectors produced by pass  2 Test12= 6.86D-12 3.33D-08 XBig12= 3.47D-03 8.45D-03.
      3 vectors produced by pass  3 Test12= 6.86D-12 3.33D-08 XBig12= 1.10D-05 4.78D-04.
      3 vectors produced by pass  4 Test12= 6.86D-12 3.33D-08 XBig12= 6.24D-08 5.35D-05.
      3 vectors produced by pass  5 Test12= 6.86D-12 3.33D-08 XBig12= 3.58D-10 5.12D-06.
      3 vectors produced by pass  6 Test12= 6.86D-12 3.33D-08 XBig12= 1.91D-12 3.71D-07.
 InvSVY:  IOpt=1 It=  1 EMax= 1.78D-15
 Solved reduced A of dimension    21 with     3 vectors.
 Calculating GIAO nuclear magnetic shielding tensors.
 SCF GIAO Magnetic shielding tensor (ppm):
      1  P    Isotropic =   301.6549   Anisotropy =    43.7374
   XX=   305.7215   YX=   -12.4258   ZX=     8.5550
   XY=    25.2762   YY=   286.3806   ZY=    32.4409
   XZ=   -10.8756   YZ=    23.4979   ZZ=   312.8628
   Eigenvalues:   267.7111   306.4406   330.8132
      2  C    Isotropic =    47.2882   Anisotropy =   163.1925
   XX=    15.0476   YX=     3.2642   ZX=    31.8772
   XY=     3.6560   YY=    -0.2507   ZY=    54.3388
   XZ=    39.0602   YZ=    55.9906   ZZ=   127.0677
   Eigenvalues:   -23.4791     9.2606   156.0832
      3  C    Isotropic =    42.2715   Anisotropy =   193.6232
   XX=   -27.0646   YX=    51.7771   ZX=    19.3110
   XY=    57.1543   YY=     8.6972   ZY=    64.1923
   XZ=    24.6185   YZ=    42.1816   ZZ=   145.1819
   Eigenvalues:   -67.4781    22.9389   171.3537
      4  C    Isotropic =    56.0675   Anisotropy =   175.8618
   XX=   -29.6576   YX=    -9.3146   ZX=    50.5566
   XY=    -5.1121   YY=    71.7513   ZY=    56.1962
   XZ=    65.9153   YZ=    59.0958   ZZ=   126.1088
   Eigenvalues:   -54.5884    49.4823   173.3087
      5  C    Isotropic =    55.2483   Anisotropy =   176.6744
   XX=    43.3014   YX=     7.2027   ZX=    25.2876
   XY=     4.9692   YY=    11.4414   ZY=    91.8910
   XZ=    38.6401   YZ=    92.0347   ZZ=   111.0021
   Eigenvalues:   -44.8306    37.5443   173.0313
      6  C    Isotropic =    43.6353   Anisotropy =   166.8350
   XX=   -12.1115   YX=    32.1354   ZX=    15.3484
   XY=    24.4557   YY=    25.7858   ZY=    77.7261
   XZ=    12.2642   YZ=    52.2692   ZZ=   117.2316
   Eigenvalues:   -30.9328     6.9801   154.8586
      7  C    Isotropic =    19.4709   Anisotropy =   130.1689
   XX=   -53.6951   YX=   -19.8117   ZX=    47.6649
   XY=   -18.9756   YY=    29.6283   ZY=    45.5376
   XZ=    34.9936   YZ=    26.8481   ZZ=    82.4796
   Eigenvalues:   -73.5114    25.6740   106.2502
      8  O    Isotropic =   142.2256   Anisotropy =   181.3284
   XX=    97.5442   YX=   -21.3417   ZX=   -24.8798
   XY=   -30.1009   YY=   135.3865   ZY=    81.6901
   XZ=   -42.8292   YZ=    83.5859   ZZ=   193.7462
   Eigenvalues:    76.7289    86.8368   263.1112
      9  C    Isotropic =   143.2696   Anisotropy =     8.8250
   XX=   142.9062   YX=     0.6686   ZX=    -1.6912
   XY=    -0.1178   YY=   139.3233   ZY=     8.3627
   XZ=    -1.2187   YZ=    -1.2712   ZZ=   147.5794
   Eigenvalues:   137.8898   142.7661   149.1529
     10  C    Isotropic =   162.5592   Anisotropy =    30.1042
   XX=   148.1040   YX=    -0.5732   ZX=    -4.7681
   XY=     1.4577   YY=   160.7223   ZY=   -11.4667
   XZ=    -4.9914   YZ=    -4.8548   ZZ=   178.8513
   Eigenvalues:   147.2903   157.7587   182.6287
     11  C    Isotropic =   154.5345   Anisotropy =    43.6630
   XX=   146.6515   YX=    -5.5604   ZX=    -5.6720
   XY=    -3.2945   YY=   152.9194   ZY=    19.0507
   XZ=    -6.2360   YZ=    26.9870   ZZ=   164.0327
   Eigenvalues:   134.7921   145.1683   183.6432
     12  C    Isotropic =    41.4564   Anisotropy =   198.7035
   XX=   162.2683   YX=   -35.7875   ZX=   -10.9593
   XY=   -53.6099   YY=     0.4283   ZY=   -22.2682
   XZ=    -9.9546   YZ=   -16.6293   ZZ=   -38.3275
   Eigenvalues:   -50.2082     0.6519   173.9254
     13  C    Isotropic =    44.1496   Anisotropy =   198.0163
   XX=   160.4163   YX=   -58.0445   ZX=    15.3875
   XY=   -39.6629   YY=    24.1076   ZY=    47.0364
   XZ=    16.2904   YZ=    31.4538   ZZ=   -52.0749
   Eigenvalues:   -73.7882    30.0766   176.1605
     14  C    Isotropic =    52.7918   Anisotropy =   194.0722
   XX=   165.9802   YX=   -62.2614   ZX=     5.2299
   XY=   -58.1562   YY=   -43.3105   ZY=     3.6704
   XZ=     5.2838   YZ=     4.8353   ZZ=    35.7056
   Eigenvalues:   -59.7085    35.9106   182.1732
     15  C    Isotropic =    51.8048   Anisotropy =   191.3086
   XX=   170.6955   YX=   -34.7632   ZX=   -10.6217
   XY=   -40.4875   YY=    15.6456   ZY=   -42.6793
   XZ=    -8.9224   YZ=   -40.0413   ZZ=   -30.9267
   Eigenvalues:   -58.5014    34.5720   179.3439
     16  C    Isotropic =    52.2361   Anisotropy =   186.7680
   XX=   166.1066   YX=   -41.9712   ZX=    13.2687
   XY=   -36.7533   YY=    30.9621   ZY=    37.9434
   XZ=    11.8209   YZ=    42.5081   ZZ=   -40.3604
   Eigenvalues:   -61.9238    41.8840   176.7481
     17  C    Isotropic =    48.5350   Anisotropy =   196.0344
   XX=   160.4135   YX=   -70.2188   ZX=    -2.5726
   XY=   -59.1103   YY=   -44.0868   ZY=     9.6521
   XZ=     2.5280   YZ=    14.9600   ZZ=    29.2783
   Eigenvalues:   -64.3105    30.6909   179.2246
     18  C    Isotropic =    35.6163   Anisotropy =   203.6829
   XX=   -12.1432   YX=    70.8743   ZX=   -55.5762
   XY=    57.6294   YY=    65.6996   ZY=   -74.6732
   XZ=   -55.6530   YZ=   -69.9805   ZZ=    53.2925
   Eigenvalues:   -51.5851   -12.9709   171.4049
     19  C    Isotropic =    48.3412   Anisotropy =   185.1917
   XX=    37.9052   YX=    61.7516   ZX=    -8.7876
   XY=    79.6601   YY=    44.3111   ZY=   -87.7406
   XZ=    -9.7501   YZ=  -100.1420   ZZ=    62.8073
   Eigenvalues:   -64.8230    38.0443   171.8023
     20  C    Isotropic =    54.0751   Anisotropy =   183.1613
   XX=   -21.6809   YX=    59.0690   ZX=   -56.4209
   XY=    56.2100   YY=    94.0561   ZY=   -52.6820
   XZ=   -55.9389   YZ=   -50.2095   ZZ=    89.8501
   Eigenvalues:   -54.4247    40.4674   176.1826
     21  C    Isotropic =    52.6534   Anisotropy =   183.9671
   XX=    42.4268   YX=    12.7232   ZX=   -64.1377
   XY=    14.0340   YY=    79.4024   ZY=   -93.1856
   XZ=   -64.9420   YZ=   -95.7488   ZZ=    36.1310
   Eigenvalues:   -59.0045    41.6666   175.2981
     22  C    Isotropic =    51.9726   Anisotropy =   184.1430
   XX=    37.2259   YX=    71.5093   ZX=    -4.6353
   XY=    70.3765   YY=    49.6462   ZY=   -91.1221
   XZ=    -9.9749   YZ=   -94.3982   ZZ=    69.0457
   Eigenvalues:   -60.8381    42.0212   174.7346
     23  C    Isotropic =    47.7314   Anisotropy =   193.5441
   XX=    45.1812   YX=    20.9070   ZX=   -59.3955
   XY=    21.0168   YY=    74.8939   ZY=   -93.6267
   XZ=   -76.1673   YZ=  -101.0885   ZZ=    23.1190
   Eigenvalues:   -68.7527    35.1860   176.7608
     24  H    Isotropic =    24.5998   Anisotropy =    12.3483
   XX=    23.4343   YX=     5.5743   ZX=    -1.2145
   XY=     1.4682   YY=    27.4848   ZY=    -6.2519
   XZ=     0.5587   YZ=    -6.1574   ZZ=    22.8803
   Eigenvalues:    17.9348    23.0326    32.8320
     25  H    Isotropic =    23.7834   Anisotropy =     8.8089
   XX=    29.3025   YX=    -0.6197   ZX=    -0.8676
   XY=    -2.4630   YY=    21.9609   ZY=    -1.0613
   XZ=    -1.1369   YZ=    -2.5539   ZZ=    20.0868
   Eigenvalues:    18.7246    22.9696    29.6560
     26  H    Isotropic =    24.1460   Anisotropy =     5.8192
   XX=    24.7009   YX=    -0.0160   ZX=    -0.0540
   XY=    -0.8541   YY=    26.4511   ZY=    -3.1926
   XZ=     0.6288   YZ=    -3.1164   ZZ=    21.2861
   Eigenvalues:    19.7907    24.6219    28.0255
     27  H    Isotropic =    29.9567   Anisotropy =     9.2196
   XX=    27.5812   YX=     0.1595   ZX=    -1.3960
   XY=     0.2639   YY=    26.5389   ZY=    -0.1325
   XZ=    -1.2351   YZ=    -2.1972   ZZ=    35.7499
   Eigenvalues:    26.3916    27.3754    36.1030
     28  H    Isotropic =    29.3801   Anisotropy =     9.1112
   XX=    30.0897   YX=     3.2007   ZX=    -0.2749
   XY=     3.8771   YY=    32.2270   ZY=    -2.5448
   XZ=    -0.2888   YZ=    -2.9430   ZZ=    25.8237
   Eigenvalues:    24.5854    28.1007    35.4543
     29  H    Isotropic =    29.2936   Anisotropy =     6.8261
   XX=    23.0833   YX=    -0.7192   ZX=    -2.1971
   XY=    -0.0207   YY=    31.4453   ZY=     0.6795
   XZ=    -2.1261   YZ=    -0.0839   ZZ=    33.3521
   Eigenvalues:    22.6363    31.4000    33.8443
     30  H    Isotropic =    30.1644   Anisotropy =     9.9164
   XX=    27.9724   YX=     2.5350   ZX=     0.9118
   XY=     3.0407   YY=    33.1533   ZY=     2.7793
   XZ=     1.6166   YZ=     5.3180   ZZ=    29.3676
   Eigenvalues:    26.4463    27.2716    36.7754
     31  H    Isotropic =    23.4939   Anisotropy =    11.4944
   XX=    25.8167   YX=     0.1112   ZX=     5.7877
   XY=    -0.2193   YY=    19.0259   ZY=    -0.2492
   XZ=     5.0291   YZ=    -1.0393   ZZ=    25.6390
   Eigenvalues:    18.8826    20.4422    31.1568
     32  H    Isotropic =    24.0471   Anisotropy =     3.6122
   XX=    24.2037   YX=    -0.9223   ZX=     1.4598
   XY=    -1.1217   YY=    23.8594   ZY=     2.4812
   XZ=     0.9778   YZ=     2.4521   ZZ=    24.0781
   Eigenvalues:    20.7705    24.9155    26.4552
     33  H    Isotropic =    24.1551   Anisotropy =     7.3647
   XX=    27.2978   YX=    -0.9701   ZX=     3.7185
   XY=    -1.2662   YY=    22.3983   ZY=     0.8779
   XZ=     2.8235   YZ=     0.8648   ZZ=    22.7692
   Eigenvalues:    20.2611    23.1392    29.0649
     34  H    Isotropic =    24.4841   Anisotropy =    15.6552
   XX=    32.0806   YX=    -4.2637   ZX=     6.4875
   XY=    -5.2257   YY=    22.7596   ZY=    -0.9456
   XZ=     1.5144   YZ=     0.8657   ZZ=    18.6122
   Eigenvalues:    17.1666    21.3648    34.9209
     35  H    Isotropic =    24.1843   Anisotropy =     9.0978
   XX=    26.9573   YX=     3.0926   ZX=     3.5805
   XY=     1.4863   YY=    26.2269   ZY=     2.7499
   XZ=     0.7770   YZ=     3.7992   ZZ=    19.3687
   Eigenvalues:    17.8887    24.4147    30.2495
     36  H    Isotropic =    24.9439   Anisotropy =     4.2115
   XX=    26.1784   YX=    -2.4293   ZX=    -1.0403
   XY=    -0.9118   YY=    23.5332   ZY=     1.7054
   XZ=    -0.3402   YZ=     1.6004   ZZ=    25.1201
   Eigenvalues:    22.1764    24.9036    27.7516
     37  H    Isotropic =    24.4254   Anisotropy =     3.1501
   XX=    22.9143   YX=     0.6765   ZX=    -2.8348
   XY=     0.7253   YY=    25.5988   ZY=    -0.7363
   XZ=    -1.2432   YZ=     0.1377   ZZ=    24.7631
   Eigenvalues:    21.5539    25.1969    26.5254
     38  H    Isotropic =    24.5675   Anisotropy =     6.9952
   XX=    21.7686   YX=     1.5393   ZX=    -0.7224
   XY=     0.8864   YY=    26.2182   ZY=     2.7450
   XZ=    -0.5262   YZ=     3.7031   ZZ=    25.7156
   Eigenvalues:    20.8635    23.6080    29.2309
     39  H    Isotropic =    25.8259   Anisotropy =    12.4567
   XX=    21.5655   YX=     1.7786   ZX=     0.7320
   XY=    -0.5033   YY=    25.0166   ZY=     3.2138
   XZ=     0.0871   YZ=     7.5620   ZZ=    30.8957
   Eigenvalues:    21.3053    22.0422    34.1304
     40  P    Isotropic =   320.9910   Anisotropy =    66.0419
   XX=   314.9293   YX=    18.2541   ZX=    -8.5284
   XY=     7.0683   YY=   318.2090   ZY=    29.8713
   XZ=    15.1895   YZ=    46.5401   ZZ=   329.8347
   Eigenvalues:   283.5311   314.4229   365.0190
     41  C    Isotropic =    49.4705   Anisotropy =   165.2963
   XX=    54.5523   YX=   -28.7950   ZX=   -59.9174
   XY=   -38.5311   YY=    13.2312   ZY=    56.1615
   XZ=   -62.0714   YZ=    58.6686   ZZ=    80.6279
   Eigenvalues:   -19.6759     8.4194   159.6680
     42  C    Isotropic =    40.9766   Anisotropy =   196.8765
   XX=    11.8944   YX=   -80.0635   ZX=   -64.7133
   XY=   -73.0774   YY=    11.3851   ZY=    52.6311
   XZ=   -55.4830   YZ=    47.7010   ZZ=    99.6503
   Eigenvalues:   -65.3102    16.0123   172.2276
     43  C    Isotropic =    57.3183   Anisotropy =   174.3324
   XX=    19.6688   YX=   -24.8009   ZX=   -93.4018
   XY=   -22.9681   YY=    76.4933   ZY=    45.0059
   XZ=   -94.7290   YZ=    48.3675   ZZ=    75.7927
   Eigenvalues:   -51.1021    49.5170   173.5399
     44  C    Isotropic =    55.7868   Anisotropy =   176.5257
   XX=    78.8464   YX=   -27.9413   ZX=   -52.6749
   XY=   -29.5636   YY=     8.0844   ZY=    83.4473
   XZ=   -60.6060   YZ=    74.6284   ZZ=    80.4295
   Eigenvalues:   -43.0799    36.9695   173.4706
     45  C    Isotropic =    44.4058   Anisotropy =   167.8129
   XX=    31.3218   YX=   -51.5147   ZX=   -60.4103
   XY=   -50.0354   YY=    13.2149   ZY=    57.7959
   XZ=   -57.6701   YZ=    33.6704   ZZ=    88.6806
   Eigenvalues:   -29.4337     6.3699   156.2810
     46  C    Isotropic =    20.6754   Anisotropy =   130.1140
   XX=    -4.9639   YX=    -8.1350   ZX=   -75.2068
   XY=   -10.4074   YY=    34.6905   ZY=    34.9282
   XZ=   -81.7883   YZ=    28.5409   ZZ=    32.2997
   Eigenvalues:   -68.5887    23.1969   107.4181
     47  C    Isotropic =    38.2107   Anisotropy =   208.4689
   XX=   172.2281   YX=   -41.6889   ZX=     3.7544
   XY=   -22.1373   YY=   -32.5775   ZY=   -25.1589
   XZ=    -1.5191   YZ=   -20.8438   ZZ=   -25.0184
   Eigenvalues:   -54.6693    -7.8884   177.1900
     48  C    Isotropic =    47.4377   Anisotropy =   200.6898
   XX=   175.8184   YX=   -30.0971   ZX=    -2.6631
   XY=   -38.6500   YY=   -39.8459   ZY=    38.1610
   XZ=     8.4563   YZ=    42.5478   ZZ=     6.3408
   Eigenvalues:   -67.2860    28.3682   181.2309
     49  C    Isotropic =    49.4466   Anisotropy =   193.8399
   XX=   175.7912   YX=   -16.9335   ZX=     2.1363
   XY=   -23.5619   YY=    36.4205   ZY=     8.2642
   XZ=     0.7766   YZ=    11.3160   ZZ=   -63.8718
   Eigenvalues:   -64.8673    34.5340   178.6732
     50  C    Isotropic =    54.3392   Anisotropy =   185.0226
   XX=   172.4975   YX=   -32.0065   ZX=    -7.1663
   XY=   -31.3623   YY=   -15.8996   ZY=   -44.1983
   XZ=    -8.7014   YZ=   -42.5023   ZZ=     6.4198
   Eigenvalues:   -53.4928    38.8229   177.6877
     51  C    Isotropic =    52.6044   Anisotropy =   186.5768
   XX=   172.3939   YX=   -29.2985   ZX=     0.5003
   XY=   -32.4617   YY=   -35.4111   ZY=    38.9157
   XZ=     2.7646   YZ=    38.1066   ZZ=    20.8303
   Eigenvalues:   -58.4616    39.2858   176.9889
     52  C    Isotropic =    47.7786   Anisotropy =   190.9848
   XX=   173.4222   YX=    -6.7780   ZX=    -3.3252
   XY=   -22.7046   YY=    35.5406   ZY=    18.9961
   XZ=    -5.1488   YZ=     3.4236   ZZ=   -65.6269
   Eigenvalues:   -66.8826    35.1168   175.1018
     53  C    Isotropic =    32.5614   Anisotropy =   208.7702
   XX=   -41.0586   YX=   -20.3362   ZX=    30.8306
   XY=    -8.0008   YY=    94.2041   ZY=   -94.6281
   XZ=    27.6875   YZ=   -95.7420   ZZ=    44.5389
   Eigenvalues:   -53.4691   -20.5881   171.7416
     54  C    Isotropic =    47.3232   Anisotropy =   182.6258
   XX=   -25.2713   YX=   -47.1636   ZX=   -21.5897
   XY=   -61.0688   YY=    97.7390   ZY=   -70.5682
   XZ=   -15.3486   YZ=   -88.0919   ZZ=    69.5018
   Eigenvalues:   -64.5161    37.4119   169.0737
     55  C    Isotropic =    52.7093   Anisotropy =   184.9748
   XX=   -33.5405   YX=     1.8637   ZX=    48.5593
   XY=     3.9125   YY=   111.9274   ZY=   -75.9838
   XZ=    47.5382   YZ=   -73.1536   ZZ=    79.7409
   Eigenvalues:   -57.0171    39.1192   176.0258
     56  C    Isotropic =    51.7048   Anisotropy =   184.7259
   XX=    43.1662   YX=   -11.0424   ZX=    13.4891
   XY=   -12.4277   YY=    77.2161   ZY=  -113.3580
   XZ=    14.4250   YZ=  -115.6032   ZZ=    34.7321
   Eigenvalues:   -60.5624    40.8215   174.8554
     57  C    Isotropic =    51.2536   Anisotropy =   184.4663
   XX=   -25.8129   YX=   -52.2814   ZX=   -18.4578
   XY=   -51.3529   YY=    97.7647   ZY=   -76.9636
   XZ=   -16.5940   YZ=   -83.5078   ZZ=    81.8090
   Eigenvalues:   -61.2785    40.8081   174.2311
     58  C    Isotropic =    47.6797   Anisotropy =   189.1880
   XX=    38.5339   YX=   -17.7489   ZX=    12.1504
   XY=   -23.6118   YY=    75.2310   ZY=  -104.9004
   XZ=    19.4206   YZ=  -123.6335   ZZ=    29.2741
   Eigenvalues:   -64.3098    33.5439   173.8050
     59  H    Isotropic =    24.1809   Anisotropy =    10.2217
   XX=    23.4655   YX=    -4.5307   ZX=     2.3422
   XY=    -1.9451   YY=    23.8443   ZY=    -6.6952
   XZ=     1.8200   YZ=    -2.4463   ZZ=    25.2328
   Eigenvalues:    19.4530    22.0943    30.9954
     60  H    Isotropic =    23.9760   Anisotropy =     8.9096
   XX=    26.8883   YX=     2.1266   ZX=     3.6135
   XY=     4.1468   YY=    22.9145   ZY=     0.0104
   XZ=     4.1195   YZ=    -1.4799   ZZ=    22.1253
   Eigenvalues:    18.6857    23.3266    29.9158
     61  H    Isotropic =    24.3624   Anisotropy =     5.5939
   XX=    23.8785   YX=     0.6959   ZX=     1.5932
   XY=     1.8114   YY=    26.5099   ZY=    -3.3153
   XZ=     1.2957   YZ=    -2.4105   ZZ=    22.6988
   Eigenvalues:    20.2107    24.7848    28.0917
     62  H    Isotropic =    29.4093   Anisotropy =     9.0295
   XX=    30.3230   YX=    -2.4966   ZX=     2.3449
   XY=    -2.4331   YY=    31.1217   ZY=    -3.6343
   XZ=     2.5144   YZ=    -3.6838   ZZ=    26.7831
   Eigenvalues:    24.5227    28.2762    35.4289
     63  H    Isotropic =    30.2989   Anisotropy =     9.4521
   XX=    30.5783   YX=    -4.7884   ZX=    -1.3279
   XY=    -3.3702   YY=    32.1195   ZY=     1.2317
   XZ=    -2.4812   YZ=     3.5078   ZZ=    28.1988
   Eigenvalues:    27.0828    27.2136    36.6003
     64  H    Isotropic =    23.3879   Anisotropy =    10.5589
   XX=    23.1800   YX=    -1.3428   ZX=    -5.5415
   XY=    -1.4130   YY=    20.3043   ZY=     2.6289
   XZ=    -3.3850   YZ=     1.9514   ZZ=    26.6793
   Eigenvalues:    19.5631    20.1734    30.4271
     65  H    Isotropic =    24.0735   Anisotropy =    14.1073
   XX=    32.2481   YX=    -1.9608   ZX=    -5.6016
   XY=     0.2589   YY=    21.0952   ZY=     1.2470
   XZ=    -2.6028   YZ=    -0.3194   ZZ=    18.8774
   Eigenvalues:    17.7053    21.0369    33.4784
     66  H    Isotropic =    25.1821   Anisotropy =     9.8480
   XX=    24.0807   YX=    -3.9341   ZX=     1.0670
   XY=    -0.8009   YY=    25.9087   ZY=     3.8659
   XZ=     1.8280   YZ=     8.0232   ZZ=    25.5569
   Eigenvalues:    18.4861    25.3128    31.7474
     67  H    Isotropic =    24.3999   Anisotropy =     5.6857
   XX=    23.4908   YX=     1.7368   ZX=     1.6455
   XY=     1.1330   YY=    26.7359   ZY=     1.1589
   XZ=     1.2849   YZ=     2.3458   ZZ=    22.9731
   Eigenvalues:    21.6922    23.3171    28.1904
     68  H    Isotropic =    24.0027   Anisotropy =     3.1797
   XX=    21.9605   YX=     2.2890   ZX=     0.4346
   XY=     1.3013   YY=    24.8958   ZY=    -0.9409
   XZ=     0.2654   YZ=    -0.6661   ZZ=    25.1519
   Eigenvalues:    21.0025    24.8832    26.1225
     69  H    Isotropic =    23.7956   Anisotropy =     4.7070
   XX=    21.4402   YX=     1.9243   ZX=    -0.2926
   XY=     1.1594   YY=    24.9106   ZY=     1.9491
   XZ=     0.2696   YZ=     1.5316   ZZ=    25.0361
   Eigenvalues:    20.7481    23.7052    26.9336
     70  H    Isotropic =    23.4862   Anisotropy =     9.2009
   XX=    21.6849   YX=     0.4639   ZX=    -0.8837
   XY=     0.2779   YY=    29.5534   ZY=     1.0999
   XZ=     0.5580   YZ=     0.3476   ZZ=    19.2202
   Eigenvalues:    19.1557    21.6827    29.6201
     71  H    Isotropic =    24.0707   Anisotropy =     7.0136
   XX=    26.2742   YX=    -0.8466   ZX=    -3.0563
   XY=    -0.7298   YY=    22.3853   ZY=     2.5780
   XZ=    -2.8785   YZ=     1.8453   ZZ=    23.5526
   Eigenvalues:    20.3531    23.1126    28.7464
     72  H    Isotropic =    24.0418   Anisotropy =     3.7487
   XX=    25.0216   YX=     1.1583   ZX=    -0.2538
   XY=     1.2067   YY=    23.0164   ZY=     2.8103
   XZ=    -0.0419   YZ=     2.4604   ZZ=    24.0874
   Eigenvalues:    20.6271    24.9574    26.5409
     73  H    Isotropic =    23.9531   Anisotropy =     6.2435
   XX=    27.4752   YX=     0.4955   ZX=    -2.0802
   XY=     0.4574   YY=    21.3349   ZY=     1.5904
   XZ=    -1.5215   YZ=     0.9495   ZZ=    23.0491
   Eigenvalues:    20.4132    23.3306    28.1154
     74  H    Isotropic =    23.8616   Anisotropy =     5.7133
   XX=    26.2513   YX=    -2.4430   ZX=     1.5034
   XY=    -2.4490   YY=    22.7352   ZY=     0.9576
   XZ=     1.2497   YZ=     0.5073   ZZ=    22.5984
   Eigenvalues:    20.6077    23.3066    27.6705
 End of Minotr F.D. properties file   721 does not exist.
 End of Minotr F.D. properties file   722 does not exist.
 End of Minotr F.D. properties file   788 does not exist.

 **********************************************************************

            Population analysis using the SCF density.

 **********************************************************************

 Orbital symmetries:
       Occupied  (A) (A) (A) (A) (A) (A) (A) (A) (A) (A) (A) (A)
                 (A) (A) (A) (A) (A) (A) (A) (A) (A) (A) (A) (A)
                 (A) (A) (A) (A) (A) (A) (A) (A) (A) (A) (A) (A)
                 (A) (A) (A) (A) (A) (A) (A) (A) (A) (A) (A) (A)
                 (A) (A) (A) (A) (A) (A) (A) (A) (A) (A) (A) (A)
                 (A) (A) (A) (A) (A) (A) (A) (A) (A) (A) (A) (A)
                 (A) (A) (A) (A) (A) (A) (A) (A) (A) (A) (A) (A)
                 (A) (A) (A) (A) (A) (A) (A) (A) (A) (A) (A) (A)
                 (A) (A) (A) (A) (A) (A) (A) (A) (A) (A) (A) (A)
                 (A) (A) (A) (A) (A) (A) (A) (A) (A) (A) (A) (A)
                 (A) (A) (A) (A) (A) (A) (A) (A) (A) (A) (A) (A)
                 (A) (A) (A) (A) (A) (A) (A) (A) (A) (A) (A) (A)
                 (A) (A) (A) (A) (A) (A) (A) (A)
       Virtual   (A) (A) (A) (A) (A) (A) (A) (A) (A) (A) (A) (A)
                 (A) (A) (A) (A) (A) (A) (A) (A) (A) (A) (A) (A)
                 (A) (A) (A) (A) (A) (A) (A) (A) (A) (A) (A) (A)
                 (A) (A) (A) (A) (A) (A) (A) (A) (A) (A) (A) (A)
                 (A) (A) (A) (A) (A) (A) (A) (A) (A) (A) (A) (A)
                 (A) (A) (A) (A) (A) (A) (A) (A) (A) (A) (A) (A)
                 (A) (A) (A) (A) (A) (A) (A) (A) (A) (A) (A) (A)
                 (A) (A) (A) (A) (A) (A) (A) (A) (A) (A) (A) (A)
                 (A) (A) (A) (A) (A) (A) (A) (A) (A) (A) (A) (A)
                 (A) (A) (A) (A) (A) (A) (A) (A) (A) (A) (A) (A)
                 (A) (A) (A) (A) (A) (A) (A) (A) (A) (A) (A) (A)
                 (A) (A) (A) (A) (A) (A) (A) (A) (A) (A) (A) (A)
                 (A) (A) (A) (A) (A) (A) (A) (A) (A) (A) (A) (A)
                 (A) (A) (A) (A) (A) (A) (A) (A) (A) (A) (A) (A)
                 (A) (A) (A) (A) (A) (A) (A) (A) (A) (A) (A) (A)
                 (A) (A) (A) (A) (A) (A) (A) (A) (A) (A) (A) (A)
                 (A) (A) (A) (A) (A) (A) (A) (A) (A) (A) (A) (A)
                 (A) (A) (A) (A) (A) (A) (A) (A) (A) (A) (A) (A)
                 (A) (A) (A) (A) (A) (A) (A) (A) (A) (A) (A) (A)
                 (A) (A) (A) (A) (A) (A) (A) (A) (A) (A) (A) (A)
                 (A) (A) (A) (A) (A) (A) (A) (A) (A) (A) (A) (A)
                 (A) (A) (A) (A) (A) (A) (A) (A) (A) (A) (A) (A)
                 (A) (A) (A) (A) (A) (A) (A) (A) (A) (A) (A) (A)
                 (A) (A) (A) (A) (A) (A) (A) (A) (A) (A) (A) (A)
                 (A) (A) (A) (A) (A) (A) (A) (A) (A) (A) (A) (A)
                 (A) (A) (A) (A) (A) (A) (A) (A) (A) (A) (A) (A)
                 (A) (A) (A) (A) (A) (A) (A) (A) (A) (A) (A) (A)
                 (A) (A) (A) (A) (A) (A) (A) (A) (A) (A) (A) (A)
                 (A) (A) (A) (A) (A) (A) (A) (A) (A) (A) (A) (A)
                 (A) (A) (A) (A) (A) (A) (A) (A) (A) (A) (A) (A)
                 (A) (A) (A) (A) (A) (A) (A) (A) (A) (A) (A) (A)
                 (A) (A) (A) (A) (A) (A) (A) (A) (A) (A) (A) (A)
                 (A) (A) (A) (A) (A) (A) (A) (A) (A) (A) (A) (A)
                 (A) (A) (A) (A) (A) (A) (A) (A) (A) (A) (A) (A)
                 (A) (A) (A) (A) (A) (A) (A) (A) (A) (A) (A) (A)
                 (A) (A) (A) (A) (A) (A) (A) (A) (A) (A) (A) (A)
                 (A) (A) (A) (A) (A) (A) (A) (A) (A) (A) (A) (A)
                 (A) (A) (A) (A) (A) (A) (A) (A) (A) (A) (A) (A)
                 (A) (A) (A) (A) (A) (A) (A) (A) (A) (A) (A) (A)
                 (A) (A) (A) (A) (A) (A) (A) (A) (A) (A) (A) (A)
                 (A) (A) (A) (A) (A) (A) (A) (A) (A) (A) (A) (A)
                 (A) (A) (A) (A) (A) (A) (A) (A) (A) (A) (A) (A)
                 (A) (A) (A) (A) (A) (A) (A) (A) (A) (A) (A) (A)
                 (A) (A) (A) (A) (A) (A) (A) (A) (A) (A) (A) (A)
                 (A) (A) (A) (A) (A) (A) (A) (A) (A) (A) (A) (A)
                 (A) (A) (A) (A) (A) (A) (A) (A) (A) (A) (A) (A)
                 (A) (A) (A) (A) (A) (A) (A) (A) (A) (A) (A) (A)
                 (A) (A) (A) (A) (A) (A) (A) (A) (A) (A) (A) (A)
                 (A) (A) (A) (A) (A) (A) (A) (A) (A) (A) (A) (A)
                 (A) (A) (A) (A) (A) (A) (A) (A) (A) (A) (A) (A)
                 (A) (A) (A) (A) (A) (A) (A) (A) (A) (A) (A) (A)
                 (A) (A) (A) (A) (A) (A) (A) (A) (A) (A) (A) (A)
                 (A) (A) (A) (A) (A) (A) (A) (A) (A) (A) (A) (A)
                 (A) (A) (A) (A) (A) (A) (A) (A) (A) (A) (A) (A)
                 (A) (A) (A) (A) (A) (A) (A) (A) (A) (A) (A) (A)
                 (A) (A) (A) (A) (A) (A) (A) (A) (A) (A) (A) (A)
                 (A) (A) (A) (A) (A) (A) (A) (A) (A) (A) (A) (A)
                 (A) (A) (A) (A) (A) (A) (A) (A) (A) (A) (A) (A)
                 (A) (A) (A) (A) (A) (A) (A) (A) (A) (A) (A) (A)
                 (A) (A) (A) (A) (A) (A) (A) (A) (A) (A) (A) (A)
                 (A) (A) (A) (A) (A) (A) (A) (A) (A) (A) (A) (A)
                 (A) (A) (A) (A) (A) (A) (A) (A) (A) (A) (A) (A)
                 (A) (A) (A) (A) (A) (A) (A) (A) (A) (A) (A) (A)
                 (A) (A) (A) (A) (A) (A) (A) (A) (A) (A) (A) (A)
                 (A) (A) (A) (A) (A) (A) (A) (A) (A) (A) (A) (A)
                 (A) (A) (A) (A) (A) (A) (A) (A) (A) (A) (A) (A)
                 (A) (A) (A) (A) (A) (A) (A) (A) (A) (A) (A) (A)
                 (A) (A) (A) (A) (A) (A) (A) (A) (A) (A) (A) (A)
                 (A) (A) (A) (A) (A) (A) (A) (A) (A) (A) (A) (A)
                 (A) (A) (A) (A) (A) (A) (A) (A) (A) (A) (A) (A)
                 (A) (A) (A) (A) (A) (A) (A) (A) (A) (A) (A) (A)
                 (A) (A) (A) (A) (A) (A) (A) (A) (A) (A) (A) (A)
                 (A) (A) (A) (A) (A) (A) (A) (A) (A) (A) (A) (A)
                 (A) (A) (A) (A) (A) (A) (A) (A) (A) (A) (A) (A)
                 (A) (A) (A) (A) (A) (A) (A) (A) (A) (A) (A) (A)
                 (A) (A) (A) (A) (A) (A) (A) (A) (A) (A) (A) (A)
                 (A) (A) (A) (A) (A) (A) (A) (A) (A) (A) (A) (A)
                 (A) (A) (A) (A) (A) (A) (A) (A) (A) (A) (A) (A)
                 (A) (A) (A) (A) (A) (A) (A) (A) (A) (A) (A) (A)
                 (A) (A) (A) (A) (A) (A) (A) (A) (A) (A) (A) (A)
                 (A) (A) (A) (A) (A) (A) (A) (A) (A) (A) (A) (A)
                 (A) (A) (A) (A) (A) (A) (A) (A) (A) (A) (A) (A)
                 (A) (A) (A) (A) (A) (A) (A) (A) (A) (A) (A) (A)
                 (A) (A) (A) (A) (A) (A) (A) (A) (A) (A) (A) (A)
                 (A) (A) (A) (A) (A) (A) (A) (A) (A) (A) (A) (A)
                 (A) (A) (A) (A) (A) (A) (A) (A) (A) (A) (A) (A)
                 (A) (A) (A) (A) (A) (A) (A) (A) (A) (A) (A) (A)
                 (A) (A) (A) (A) (A) (A) (A) (A) (A) (A) (A) (A)
                 (A) (A) (A) (A) (A) (A) (A) (A) (A) (A) (A) (A)
                 (A) (A) (A) (A) (A) (A) (A) (A) (A) (A) (A) (A)
                 (A) (A) (A) (A) (A) (A) (A) (A) (A) (A) (A) (A)
                 (A) (A) (A) (A) (A) (A) (A) (A) (A) (A) (A) (A)
                 (A) (A) (A) (A) (A) (A) (A) (A) (A) (A) (A) (A)
                 (A) (A) (A) (A) (A) (A) (A) (A) (A) (A) (A) (A)
                 (A) (A) (A) (A) (A) (A) (A) (A) (A) (A) (A) (A)
                 (A) (A) (A) (A) (A) (A) (A) (A) (A) (A) (A) (A)
                 (A) (A) (A) (A) (A) (A) (A) (A) (A) (A) (A) (A)
                 (A) (A) (A) (A) (A) (A) (A) (A) (A) (A) (A) (A)
                 (A) (A) (A) (A) (A) (A) (A) (A) (A) (A) (A) (A)
                 (A) (A) (A) (A) (A) (A) (A) (A) (A) (A) (A) (A)
                 (A) (A) (A) (A) (A) (A) (A) (A) (A) (A) (A) (A)
                 (A) (A) (A) (A) (A) (A) (A) (A) (A) (A) (A) (A)
                 (A) (A) (A) (A) (A) (A) (A) (A) (A) (A) (A) (A)
                 (A) (A) (A) (A) (A) (A) (A) (A) (A) (A) (A) (A)
                 (A) (A) (A) (A) (A) (A) (A) (A) (A) (A) (A) (A)
                 (A) (A) (A) (A) (A) (A) (A) (A) (A) (A) (A) (A)
                 (A) (A) (A) (A) (A) (A) (A) (A) (A) (A) (A) (A)
                 (A) (A) (A) (A) (A) (A) (A) (A) (A) (A) (A) (A)
                 (A) (A) (A) (A) (A) (A) (A) (A) (A) (A) (A) (A)
                 (A) (A) (A) (A) (A) (A) (A) (A) (A) (A) (A) (A)
                 (A) (A) (A) (A) (A) (A) (A) (A) (A) (A) (A) (A)
                 (A) (A) (A) (A) (A) (A) (A) (A) (A) (A) (A) (A)
                 (A) (A) (A) (A) (A) (A) (A) (A) (A) (A)
 The electronic state is 1-A.
 Alpha  occ. eigenvalues --  -77.20013 -77.19841 -19.24980 -10.29259 -10.29138
 Alpha  occ. eigenvalues --  -10.26685 -10.24580 -10.24544 -10.24001 -10.23956
 Alpha  occ. eigenvalues --  -10.23951 -10.23933 -10.23872 -10.23790 -10.23636
 Alpha  occ. eigenvalues --  -10.23530 -10.23491 -10.23448 -10.23361 -10.23279
 Alpha  occ. eigenvalues --  -10.23198 -10.23146 -10.23122 -10.23080 -10.23051
 Alpha  occ. eigenvalues --  -10.23009 -10.22977 -10.22962 -10.22943 -10.22912
 Alpha  occ. eigenvalues --  -10.22908 -10.22904 -10.22878 -10.22837 -10.22834
 Alpha  occ. eigenvalues --  -10.22777 -10.22771 -10.22703 -10.22636 -10.22572
 Alpha  occ. eigenvalues --  -10.22467 -10.22094  -6.59567  -6.59397  -4.73180
 Alpha  occ. eigenvalues --   -4.73133  -4.73013  -4.72967  -4.72693  -4.72518
 Alpha  occ. eigenvalues --   -1.11916  -0.89275  -0.89078  -0.88068  -0.87649
 Alpha  occ. eigenvalues --   -0.87404  -0.87166  -0.84464  -0.79620  -0.78865
 Alpha  occ. eigenvalues --   -0.78098  -0.76899  -0.76728  -0.76545  -0.76424
 Alpha  occ. eigenvalues --   -0.76305  -0.76092  -0.75824  -0.75579  -0.74653
 Alpha  occ. eigenvalues --   -0.71507  -0.67356  -0.66696  -0.65203  -0.65158
 Alpha  occ. eigenvalues --   -0.62423  -0.62289  -0.61992  -0.61735  -0.61201
 Alpha  occ. eigenvalues --   -0.61013  -0.60951  -0.60409  -0.57965  -0.57298
 Alpha  occ. eigenvalues --   -0.56289  -0.55775  -0.52984  -0.52755  -0.51851
 Alpha  occ. eigenvalues --   -0.51298  -0.50656  -0.49400  -0.49009  -0.47742
 Alpha  occ. eigenvalues --   -0.47398  -0.46731  -0.46602  -0.46519  -0.46313
 Alpha  occ. eigenvalues --   -0.46226  -0.45967  -0.45876  -0.45660  -0.45470
 Alpha  occ. eigenvalues --   -0.45177  -0.43371  -0.43208  -0.43086  -0.42981
 Alpha  occ. eigenvalues --   -0.42738  -0.42525  -0.41914  -0.41766  -0.41377
 Alpha  occ. eigenvalues --   -0.40244  -0.40037  -0.39614  -0.39423  -0.38905
 Alpha  occ. eigenvalues --   -0.38466  -0.38430  -0.38187  -0.37743  -0.37524
 Alpha  occ. eigenvalues --   -0.36881  -0.36745  -0.36102  -0.35596  -0.35374
 Alpha  occ. eigenvalues --   -0.35211  -0.35129  -0.34936  -0.34827  -0.33439
 Alpha  occ. eigenvalues --   -0.33266  -0.32932  -0.31974  -0.29395  -0.28125
 Alpha  occ. eigenvalues --   -0.27799  -0.27161  -0.26914  -0.26596  -0.26400
 Alpha  occ. eigenvalues --   -0.26094  -0.25934  -0.25696  -0.25413  -0.24222
 Alpha  occ. eigenvalues --   -0.22301  -0.20068
 Alpha virt. eigenvalues --   -0.03732  -0.02656  -0.02305  -0.02008  -0.01980
 Alpha virt. eigenvalues --   -0.01400  -0.01275  -0.00698  -0.00219  -0.00062
 Alpha virt. eigenvalues --    0.00200   0.00261   0.04048   0.04326   0.05426
 Alpha virt. eigenvalues --    0.05754   0.05915   0.06291   0.06338   0.06826
 Alpha virt. eigenvalues --    0.07390   0.07690   0.08227   0.08404   0.08752
 Alpha virt. eigenvalues --    0.08884   0.09270   0.09356   0.09684   0.09794
 Alpha virt. eigenvalues --    0.10194   0.10424   0.10690   0.10988   0.11181
 Alpha virt. eigenvalues --    0.11373   0.11899   0.12109   0.12196   0.12378
 Alpha virt. eigenvalues --    0.12672   0.12788   0.13146   0.13427   0.13667
 Alpha virt. eigenvalues --    0.13821   0.13941   0.13991   0.14542   0.14809
 Alpha virt. eigenvalues --    0.15036   0.15373   0.15526   0.15731   0.15956
 Alpha virt. eigenvalues --    0.16451   0.16640   0.16917   0.17830   0.17883
 Alpha virt. eigenvalues --    0.18548   0.18857   0.19205   0.19456   0.19518
 Alpha virt. eigenvalues --    0.20284   0.20422   0.20718   0.20901   0.21097
 Alpha virt. eigenvalues --    0.21447   0.21562   0.21743   0.21912   0.22343
 Alpha virt. eigenvalues --    0.22525   0.22618   0.22958   0.23022   0.23227
 Alpha virt. eigenvalues --    0.23266   0.23702   0.24057   0.24243   0.24264
 Alpha virt. eigenvalues --    0.24772   0.24784   0.25006   0.25107   0.25410
 Alpha virt. eigenvalues --    0.25457   0.25813   0.25921   0.26057   0.26283
 Alpha virt. eigenvalues --    0.26429   0.26837   0.26964   0.27161   0.27518
 Alpha virt. eigenvalues --    0.27565   0.27974   0.28228   0.28630   0.28655
 Alpha virt. eigenvalues --    0.29093   0.29352   0.29529   0.29870   0.29988
 Alpha virt. eigenvalues --    0.30237   0.30677   0.31183   0.31440   0.31606
 Alpha virt. eigenvalues --    0.31934   0.32167   0.32401   0.32793   0.32886
 Alpha virt. eigenvalues --    0.33224   0.33496   0.33737   0.33939   0.34441
 Alpha virt. eigenvalues --    0.34619   0.34980   0.35173   0.35549   0.35707
 Alpha virt. eigenvalues --    0.35785   0.35837   0.36352   0.36587   0.36857
 Alpha virt. eigenvalues --    0.37320   0.37456   0.37666   0.37766   0.37890
 Alpha virt. eigenvalues --    0.38116   0.38676   0.38775   0.38980   0.39235
 Alpha virt. eigenvalues --    0.39401   0.39588   0.39848   0.39987   0.40072
 Alpha virt. eigenvalues --    0.40143   0.40491   0.40822   0.40962   0.41272
 Alpha virt. eigenvalues --    0.41500   0.41716   0.41823   0.42106   0.42391
 Alpha virt. eigenvalues --    0.42633   0.42851   0.43031   0.43072   0.43309
 Alpha virt. eigenvalues --    0.43357   0.43678   0.43877   0.44012   0.44186
 Alpha virt. eigenvalues --    0.44362   0.44478   0.44591   0.44909   0.45079
 Alpha virt. eigenvalues --    0.45200   0.45385   0.45536   0.45631   0.45890
 Alpha virt. eigenvalues --    0.46149   0.46282   0.46452   0.46604   0.47022
 Alpha virt. eigenvalues --    0.47083   0.47212   0.47364   0.47700   0.48023
 Alpha virt. eigenvalues --    0.48410   0.48579   0.48824   0.49020   0.49157
 Alpha virt. eigenvalues --    0.49409   0.49662   0.49869   0.50055   0.50221
 Alpha virt. eigenvalues --    0.50582   0.50606   0.50691   0.50931   0.51092
 Alpha virt. eigenvalues --    0.51519   0.51712   0.51997   0.52178   0.52594
 Alpha virt. eigenvalues --    0.52667   0.53297   0.53894   0.53988   0.54251
 Alpha virt. eigenvalues --    0.54521   0.54711   0.54851   0.55343   0.55845
 Alpha virt. eigenvalues --    0.56445   0.56508   0.56998   0.57302   0.57433
 Alpha virt. eigenvalues --    0.57818   0.58418   0.58450   0.58994   0.59561
 Alpha virt. eigenvalues --    0.59698   0.59974   0.60163   0.60575   0.60974
 Alpha virt. eigenvalues --    0.61516   0.61779   0.62771   0.62915   0.63205
 Alpha virt. eigenvalues --    0.63473   0.63714   0.63823   0.64108   0.64712
 Alpha virt. eigenvalues --    0.65030   0.65048   0.65311   0.65787   0.66200
 Alpha virt. eigenvalues --    0.66320   0.66976   0.67125   0.67360   0.67862
 Alpha virt. eigenvalues --    0.68238   0.68354   0.68627   0.68744   0.69277
 Alpha virt. eigenvalues --    0.69438   0.69882   0.70013   0.70239   0.70617
 Alpha virt. eigenvalues --    0.70792   0.70808   0.71221   0.71481   0.72127
 Alpha virt. eigenvalues --    0.72135   0.72344   0.72653   0.72947   0.73297
 Alpha virt. eigenvalues --    0.73570   0.73954   0.73984   0.74234   0.74550
 Alpha virt. eigenvalues --    0.74774   0.74890   0.75018   0.75630   0.75942
 Alpha virt. eigenvalues --    0.76444   0.76684   0.77110   0.77139   0.77839
 Alpha virt. eigenvalues --    0.78115   0.78213   0.78434   0.78714   0.78983
 Alpha virt. eigenvalues --    0.79501   0.79850   0.79951   0.80199   0.80421
 Alpha virt. eigenvalues --    0.80678   0.80932   0.81215   0.81631   0.81954
 Alpha virt. eigenvalues --    0.82588   0.82626   0.82759   0.82990   0.83913
 Alpha virt. eigenvalues --    0.84116   0.84420   0.84447   0.84906   0.85366
 Alpha virt. eigenvalues --    0.85476   0.85806   0.86016   0.86653   0.87245
 Alpha virt. eigenvalues --    0.87636   0.87921   0.88162   0.88576   0.88916
 Alpha virt. eigenvalues --    0.89087   0.89520   0.90199   0.90578   0.91178
 Alpha virt. eigenvalues --    0.91292   0.91474   0.92334   0.92502   0.92632
 Alpha virt. eigenvalues --    0.93360   0.93467   0.93727   0.94151   0.94239
 Alpha virt. eigenvalues --    0.94661   0.94994   0.95480   0.95768   0.95862
 Alpha virt. eigenvalues --    0.96393   0.96679   0.97111   0.97732   0.98167
 Alpha virt. eigenvalues --    0.98605   0.99089   0.99730   0.99986   1.00312
 Alpha virt. eigenvalues --    1.00555   1.00808   1.01804   1.01892   1.02861
 Alpha virt. eigenvalues --    1.03126   1.03643   1.04119   1.04197   1.04480
 Alpha virt. eigenvalues --    1.04798   1.05288   1.06039   1.06629   1.06928
 Alpha virt. eigenvalues --    1.07336   1.07417   1.07847   1.08242   1.08705
 Alpha virt. eigenvalues --    1.09030   1.09491   1.10036   1.10307   1.10480
 Alpha virt. eigenvalues --    1.10685   1.10979   1.11471   1.11858   1.11970
 Alpha virt. eigenvalues --    1.12508   1.12984   1.13148   1.13509   1.14029
 Alpha virt. eigenvalues --    1.14984   1.15134   1.15462   1.15948   1.16029
 Alpha virt. eigenvalues --    1.16496   1.16631   1.17478   1.17552   1.17708
 Alpha virt. eigenvalues --    1.18818   1.19088   1.19500   1.19942   1.20117
 Alpha virt. eigenvalues --    1.20479   1.20715   1.21199   1.21299   1.21651
 Alpha virt. eigenvalues --    1.22045   1.22405   1.22647   1.22918   1.23205
 Alpha virt. eigenvalues --    1.23720   1.24163   1.24276   1.24752   1.24858
 Alpha virt. eigenvalues --    1.25542   1.25603   1.26137   1.26743   1.26867
 Alpha virt. eigenvalues --    1.26931   1.27295   1.27380   1.27922   1.28329
 Alpha virt. eigenvalues --    1.28507   1.28993   1.29209   1.29606   1.29792
 Alpha virt. eigenvalues --    1.30253   1.30548   1.30854   1.31094   1.31293
 Alpha virt. eigenvalues --    1.31670   1.32130   1.32362   1.32382   1.32776
 Alpha virt. eigenvalues --    1.32899   1.33625   1.33770   1.34205   1.34846
 Alpha virt. eigenvalues --    1.35049   1.35453   1.35589   1.36221   1.37063
 Alpha virt. eigenvalues --    1.37640   1.38370   1.38437   1.38777   1.39661
 Alpha virt. eigenvalues --    1.40043   1.41303   1.41600   1.42021   1.42358
 Alpha virt. eigenvalues --    1.42696   1.43169   1.43384   1.44264   1.44572
 Alpha virt. eigenvalues --    1.44937   1.45094   1.45234   1.45842   1.46325
 Alpha virt. eigenvalues --    1.46541   1.47044   1.47132   1.47364   1.47539
 Alpha virt. eigenvalues --    1.48896   1.49197   1.49783   1.50079   1.50180
 Alpha virt. eigenvalues --    1.50545   1.50844   1.51030   1.51417   1.51800
 Alpha virt. eigenvalues --    1.52287   1.52594   1.53075   1.53216   1.53910
 Alpha virt. eigenvalues --    1.54364   1.54527   1.54742   1.55102   1.55310
 Alpha virt. eigenvalues --    1.55880   1.56035   1.56481   1.56815   1.57245
 Alpha virt. eigenvalues --    1.57671   1.57949   1.58123   1.58497   1.58756
 Alpha virt. eigenvalues --    1.58880   1.59179   1.59705   1.60323   1.60484
 Alpha virt. eigenvalues --    1.60514   1.60887   1.61290   1.61964   1.62124
 Alpha virt. eigenvalues --    1.62571   1.63144   1.63302   1.63949   1.64231
 Alpha virt. eigenvalues --    1.64389   1.64925   1.65307   1.65429   1.65676
 Alpha virt. eigenvalues --    1.65929   1.66182   1.66706   1.67003   1.67131
 Alpha virt. eigenvalues --    1.67691   1.67966   1.68273   1.68548   1.68671
 Alpha virt. eigenvalues --    1.69045   1.69526   1.69959   1.70075   1.70240
 Alpha virt. eigenvalues --    1.70683   1.71153   1.71457   1.71597   1.71780
 Alpha virt. eigenvalues --    1.72204   1.72612   1.72754   1.72830   1.73033
 Alpha virt. eigenvalues --    1.73451   1.73727   1.73987   1.74088   1.74519
 Alpha virt. eigenvalues --    1.74762   1.75080   1.75202   1.75530   1.76054
 Alpha virt. eigenvalues --    1.76359   1.76969   1.77448   1.77901   1.78208
 Alpha virt. eigenvalues --    1.78644   1.78737   1.79507   1.80201   1.80635
 Alpha virt. eigenvalues --    1.81040   1.81472   1.81886   1.82199   1.82279
 Alpha virt. eigenvalues --    1.82550   1.83054   1.83521   1.84056   1.84610
 Alpha virt. eigenvalues --    1.84989   1.85388   1.85968   1.86607   1.86838
 Alpha virt. eigenvalues --    1.87644   1.88197   1.88286   1.88626   1.88894
 Alpha virt. eigenvalues --    1.90066   1.90325   1.90983   1.91333   1.91829
 Alpha virt. eigenvalues --    1.92836   1.93027   1.93489   1.93693   1.94028
 Alpha virt. eigenvalues --    1.94705   1.95169   1.95792   1.96134   1.96478
 Alpha virt. eigenvalues --    1.97240   1.97634   1.98454   1.99161   1.99879
 Alpha virt. eigenvalues --    2.00274   2.00812   2.00954   2.01480   2.01730
 Alpha virt. eigenvalues --    2.02159   2.03058   2.03683   2.04159   2.04372
 Alpha virt. eigenvalues --    2.04876   2.05545   2.05922   2.06201   2.06910
 Alpha virt. eigenvalues --    2.07460   2.08099   2.08264   2.08392   2.09325
 Alpha virt. eigenvalues --    2.09344   2.09832   2.10127   2.10818   2.11067
 Alpha virt. eigenvalues --    2.11237   2.11702   2.12393   2.12483   2.13044
 Alpha virt. eigenvalues --    2.13110   2.13366   2.13781   2.14120   2.14323
 Alpha virt. eigenvalues --    2.14927   2.15128   2.15723   2.16309   2.16739
 Alpha virt. eigenvalues --    2.17035   2.17661   2.18075   2.18470   2.18713
 Alpha virt. eigenvalues --    2.19477   2.19628   2.19723   2.20730   2.20811
 Alpha virt. eigenvalues --    2.21107   2.21479   2.21647   2.22362   2.22786
 Alpha virt. eigenvalues --    2.22956   2.23936   2.24341   2.24721   2.25256
 Alpha virt. eigenvalues --    2.25566   2.25819   2.26149   2.26656   2.27736
 Alpha virt. eigenvalues --    2.27930   2.28496   2.28581   2.29499   2.29806
 Alpha virt. eigenvalues --    2.30587   2.31044   2.31289   2.32388   2.32909
 Alpha virt. eigenvalues --    2.33085   2.34376   2.35086   2.35832   2.36862
 Alpha virt. eigenvalues --    2.37738   2.38291   2.38717   2.39277   2.39897
 Alpha virt. eigenvalues --    2.40110   2.41251   2.41687   2.42130   2.42391
 Alpha virt. eigenvalues --    2.42635   2.43631   2.43699   2.44243   2.44875
 Alpha virt. eigenvalues --    2.45121   2.45339   2.46085   2.46745   2.47178
 Alpha virt. eigenvalues --    2.47529   2.47852   2.48479   2.49184   2.49675
 Alpha virt. eigenvalues --    2.49919   2.50212   2.50742   2.51083   2.51577
 Alpha virt. eigenvalues --    2.51892   2.52574   2.53546   2.53783   2.54096
 Alpha virt. eigenvalues --    2.54348   2.55273   2.55766   2.56239   2.56511
 Alpha virt. eigenvalues --    2.56985   2.57307   2.58146   2.58522   2.58601
 Alpha virt. eigenvalues --    2.58954   2.59678   2.60044   2.60169   2.60802
 Alpha virt. eigenvalues --    2.61186   2.61521   2.61698   2.62115   2.62188
 Alpha virt. eigenvalues --    2.62527   2.63087   2.63342   2.63707   2.64145
 Alpha virt. eigenvalues --    2.64249   2.64597   2.64917   2.65235   2.65396
 Alpha virt. eigenvalues --    2.65789   2.65890   2.66116   2.66250   2.66357
 Alpha virt. eigenvalues --    2.66583   2.66935   2.67446   2.67924   2.68194
 Alpha virt. eigenvalues --    2.68315   2.68506   2.68639   2.68684   2.68941
 Alpha virt. eigenvalues --    2.69254   2.69653   2.70147   2.70380   2.70502
 Alpha virt. eigenvalues --    2.71136   2.71322   2.71606   2.72155   2.72369
 Alpha virt. eigenvalues --    2.72783   2.72955   2.73239   2.73419   2.73842
 Alpha virt. eigenvalues --    2.73983   2.74272   2.74731   2.75129   2.75559
 Alpha virt. eigenvalues --    2.75956   2.75975   2.76265   2.76595   2.77399
 Alpha virt. eigenvalues --    2.77521   2.77819   2.78199   2.78372   2.78578
 Alpha virt. eigenvalues --    2.78970   2.79163   2.79352   2.79667   2.79871
 Alpha virt. eigenvalues --    2.80234   2.80394   2.80951   2.81128   2.81272
 Alpha virt. eigenvalues --    2.81821   2.82177   2.82983   2.83082   2.83817
 Alpha virt. eigenvalues --    2.84017   2.84359   2.84601   2.84943   2.85240
 Alpha virt. eigenvalues --    2.85460   2.85624   2.85827   2.86189   2.86468
 Alpha virt. eigenvalues --    2.86706   2.87008   2.87259   2.87541   2.87713
 Alpha virt. eigenvalues --    2.88022   2.88570   2.89179   2.89274   2.89979
 Alpha virt. eigenvalues --    2.90070   2.90526   2.90814   2.91000   2.91334
 Alpha virt. eigenvalues --    2.91766   2.92257   2.92364   2.92577   2.93055
 Alpha virt. eigenvalues --    2.93199   2.93598   2.93702   2.94124   2.94617
 Alpha virt. eigenvalues --    2.95266   2.95614   2.95851   2.96288   2.96596
 Alpha virt. eigenvalues --    2.96950   2.97880   2.98298   2.98762   2.98861
 Alpha virt. eigenvalues --    2.99476   3.00110   3.00620   3.01244   3.02246
 Alpha virt. eigenvalues --    3.02717   3.03927   3.04285   3.04523   3.05041
 Alpha virt. eigenvalues --    3.05237   3.06145   3.06527   3.07017   3.07580
 Alpha virt. eigenvalues --    3.08160   3.08586   3.09488   3.09932   3.09972
 Alpha virt. eigenvalues --    3.10648   3.10780   3.11391   3.11587   3.12069
 Alpha virt. eigenvalues --    3.12473   3.12719   3.12846   3.13157   3.13637
 Alpha virt. eigenvalues --    3.13867   3.14156   3.14487   3.14779   3.15015
 Alpha virt. eigenvalues --    3.15629   3.16024   3.16173   3.16428   3.16495
 Alpha virt. eigenvalues --    3.16947   3.17166   3.17467   3.17822   3.17875
 Alpha virt. eigenvalues --    3.18128   3.18503   3.18583   3.18731   3.18836
 Alpha virt. eigenvalues --    3.19469   3.19799   3.20332   3.20613   3.20944
 Alpha virt. eigenvalues --    3.21126   3.21496   3.22103   3.22288   3.22613
 Alpha virt. eigenvalues --    3.22772   3.22957   3.23448   3.23984   3.24206
 Alpha virt. eigenvalues --    3.24946   3.25151   3.25245   3.25742   3.26287
 Alpha virt. eigenvalues --    3.26577   3.27032   3.27149   3.27853   3.28190
 Alpha virt. eigenvalues --    3.28525   3.28625   3.28771   3.29395   3.29572
 Alpha virt. eigenvalues --    3.29828   3.30136   3.30388   3.30949   3.31050
 Alpha virt. eigenvalues --    3.31491   3.31900   3.32201   3.32596   3.32815
 Alpha virt. eigenvalues --    3.33007   3.33601   3.33867   3.34082   3.34515
 Alpha virt. eigenvalues --    3.34773   3.34857   3.35007   3.35105   3.35259
 Alpha virt. eigenvalues --    3.35619   3.36187   3.36368   3.36523   3.36881
 Alpha virt. eigenvalues --    3.37039   3.37155   3.37444   3.37848   3.38194
 Alpha virt. eigenvalues --    3.38666   3.38917   3.39203   3.39761   3.39979
 Alpha virt. eigenvalues --    3.40038   3.40537   3.40605   3.40863   3.41287
 Alpha virt. eigenvalues --    3.41552   3.41824   3.42432   3.42699   3.42994
 Alpha virt. eigenvalues --    3.43552   3.43678   3.43818   3.44130   3.44325
 Alpha virt. eigenvalues --    3.44473   3.44789   3.45138   3.45483   3.45838
 Alpha virt. eigenvalues --    3.46041   3.46239   3.46999   3.47314   3.47685
 Alpha virt. eigenvalues --    3.48032   3.48158   3.48362   3.49010   3.49251
 Alpha virt. eigenvalues --    3.49750   3.49920   3.50082   3.50401   3.50752
 Alpha virt. eigenvalues --    3.51045   3.51359   3.51634   3.51971   3.52500
 Alpha virt. eigenvalues --    3.52622   3.53054   3.53203   3.53591   3.53729
 Alpha virt. eigenvalues --    3.54013   3.54190   3.54686   3.54800   3.55005
 Alpha virt. eigenvalues --    3.55130   3.55689   3.55757   3.55818   3.56144
 Alpha virt. eigenvalues --    3.56445   3.56927   3.57090   3.57333   3.57523
 Alpha virt. eigenvalues --    3.58174   3.58295   3.58652   3.59718   3.59991
 Alpha virt. eigenvalues --    3.60387   3.61057   3.61401   3.62135   3.62459
 Alpha virt. eigenvalues --    3.63070   3.64174   3.64371   3.65455   3.65966
 Alpha virt. eigenvalues --    3.66190   3.66676   3.67627   3.68771   3.69454
 Alpha virt. eigenvalues --    3.70284   3.70465   3.70749   3.71339   3.71461
 Alpha virt. eigenvalues --    3.71789   3.72361   3.72796   3.73387   3.73672
 Alpha virt. eigenvalues --    3.74104   3.75166   3.75465   3.75899   3.76224
 Alpha virt. eigenvalues --    3.76752   3.77183   3.77374   3.77664   3.77923
 Alpha virt. eigenvalues --    3.78423   3.78765   3.79846   3.80428   3.81716
 Alpha virt. eigenvalues --    3.83090   3.83216   3.84697   3.86892   3.87684
 Alpha virt. eigenvalues --    3.88959   3.89298   3.90492   3.91532   3.92123
 Alpha virt. eigenvalues --    3.93664   3.93988   3.94603   3.95110   3.96223
 Alpha virt. eigenvalues --    3.96761   3.97338   3.97635   3.98495   3.98911
 Alpha virt. eigenvalues --    3.99420   4.00945   4.01898   4.02818   4.03205
 Alpha virt. eigenvalues --    4.03492   4.03920   4.04320   4.04634   4.05253
 Alpha virt. eigenvalues --    4.05626   4.06409   4.06891   4.07335   4.07752
 Alpha virt. eigenvalues --    4.08264   4.08634   4.09212   4.10369   4.11719
 Alpha virt. eigenvalues --    4.11995   4.12324   4.12615   4.12736   4.13432
 Alpha virt. eigenvalues --    4.13515   4.14095   4.14287   4.14946   4.15377
 Alpha virt. eigenvalues --    4.15868   4.16549   4.17456   4.18213   4.19128
 Alpha virt. eigenvalues --    4.19209   4.19631   4.20056   4.20415   4.20620
 Alpha virt. eigenvalues --    4.20650   4.20717   4.20999   4.21171   4.21369
 Alpha virt. eigenvalues --    4.21557   4.22111   4.22314   4.22741   4.22811
 Alpha virt. eigenvalues --    4.23121   4.23174   4.23524   4.24066   4.24635
 Alpha virt. eigenvalues --    4.24980   4.25081   4.25920   4.26102   4.26673
 Alpha virt. eigenvalues --    4.26883   4.27031   4.27372   4.27741   4.27928
 Alpha virt. eigenvalues --    4.28321   4.28634   4.29037   4.29279   4.30102
 Alpha virt. eigenvalues --    4.30567   4.31754   4.32420   4.33302   4.33772
 Alpha virt. eigenvalues --    4.34580   4.34692   4.35193   4.35246   4.35874
 Alpha virt. eigenvalues --    4.36382   4.37104   4.37905   4.38639   4.39177
 Alpha virt. eigenvalues --    4.39781   4.40284   4.41646   4.41918   4.43164
 Alpha virt. eigenvalues --    4.43652   4.45017   4.45321   4.46094   4.49412
 Alpha virt. eigenvalues --    4.50321   4.53008   4.55818   4.56861   4.57647
 Alpha virt. eigenvalues --    4.61258   4.61507   4.62005   4.62639   4.63239
 Alpha virt. eigenvalues --    4.63703   4.63786   4.64012   4.64225   4.64546
 Alpha virt. eigenvalues --    4.65260   4.65658   4.66146   4.66648   4.67462
 Alpha virt. eigenvalues --    4.69501   4.70202   4.71290   4.73056   4.73343
 Alpha virt. eigenvalues --    4.73706   4.73859   4.74599   4.75989   4.77167
 Alpha virt. eigenvalues --    4.77717   4.79354   4.80189   4.84013   4.85341
 Alpha virt. eigenvalues --    4.85397   4.86124   4.86680   4.87656   4.90837
 Alpha virt. eigenvalues --    4.92530   4.92868   4.93068   4.93938   4.94464
 Alpha virt. eigenvalues --    4.95118   4.95595   4.96656   4.96919   4.97452
 Alpha virt. eigenvalues --    4.98558   4.99299   5.00931   5.01695   5.05689
 Alpha virt. eigenvalues --    5.07979   5.09908   5.11861   5.12822   5.13868
 Alpha virt. eigenvalues --    5.14352   5.14475   5.14594   5.14843   5.14961
 Alpha virt. eigenvalues --    5.15262   5.15669   5.18652   5.23158   5.23735
 Alpha virt. eigenvalues --    5.26908   5.27687   5.27846   5.28366   5.34292
 Alpha virt. eigenvalues --    5.35213   5.35874   5.36099   5.36492   5.37119
 Alpha virt. eigenvalues --    5.40315   5.41329   5.41641   5.43590   5.43937
 Alpha virt. eigenvalues --    5.48511   5.50337   5.52594   5.57743   5.58234
 Alpha virt. eigenvalues --    5.59085   5.59333   5.60239   5.60805   5.64667
 Alpha virt. eigenvalues --    5.76176   6.04271   6.10527   6.21664   6.38393
 Alpha virt. eigenvalues --    6.55542   6.85338   6.92273   7.10132   7.41754
 Alpha virt. eigenvalues --    7.45756   7.85176   7.87646   8.01347   8.04181
 Alpha virt. eigenvalues --    8.05612   8.11021  16.01717  16.02169  22.12990
 Alpha virt. eigenvalues --   22.18105  22.23941  22.36544  22.44918  22.48022
 Alpha virt. eigenvalues --   22.48465  22.56754  22.62161  22.63070  22.63189
 Alpha virt. eigenvalues --   22.63668  22.65851  22.66791  22.68771  22.69620
 Alpha virt. eigenvalues --   22.70847  22.72746  22.73560  22.74830  22.77955
 Alpha virt. eigenvalues --   22.79527  22.80465  22.81388  22.81974  22.82578
 Alpha virt. eigenvalues --   22.84815  22.88087  22.96149  22.97349  23.01134
 Alpha virt. eigenvalues --   23.04601  23.08412  23.12543  23.15109  23.17712
 Alpha virt. eigenvalues --   23.18014  23.41289  23.56808  44.63438
          Condensed to atoms (all electrons):
 Mulliken charges:
               1
     1  P    0.109426
     2  C   -0.237864
     3  C   -0.099735
     4  C   -0.169836
     5  C   -0.169540
     6  C   -0.005376
     7  C    0.230578
     8  O   -0.250228
     9  C    0.272652
    10  C   -0.445254
    11  C   -0.410844
    12  C    0.044749
    13  C   -0.188434
    14  C   -0.048305
    15  C   -0.116461
    16  C   -0.165110
    17  C   -0.146704
    18  C    0.103568
    19  C   -0.210484
    20  C   -0.114458
    21  C   -0.110322
    22  C   -0.152984
    23  C   -0.163342
    24  H    0.151302
    25  H    0.117695
    26  H    0.115337
    27  H    0.151457
    28  H    0.134462
    29  H    0.151204
    30  H    0.126166
    31  H    0.117548
    32  H    0.115705
    33  H    0.115111
    34  H    0.150695
    35  H    0.111128
    36  H    0.115866
    37  H    0.111060
    38  H    0.112384
    39  H    0.149893
    40  P    0.080427
    41  C   -0.097047
    42  C   -0.176581
    43  C   -0.129213
    44  C   -0.191968
    45  C   -0.000954
    46  C    0.227997
    47  C    0.090175
    48  C   -0.100588
    49  C   -0.141413
    50  C   -0.139525
    51  C   -0.107037
    52  C   -0.234043
    53  C    0.135309
    54  C   -0.245025
    55  C   -0.122087
    56  C   -0.099487
    57  C   -0.127160
    58  C   -0.221794
    59  H    0.131276
    60  H    0.117632
    61  H    0.115342
    62  H    0.134045
    63  H    0.127606
    64  H    0.129223
    65  H    0.153786
    66  H    0.156668
    67  H    0.109358
    68  H    0.115043
    69  H    0.118476
    70  H    0.122078
    71  H    0.116048
    72  H    0.116791
    73  H    0.117133
    74  H    0.116805
 Sum of Mulliken charges =  -0.00000
 Mulliken charges with hydrogens summed into heavy atoms:
               1
     1  P    0.109426
     2  C   -0.237864
     3  C    0.051568
     4  C   -0.054499
     5  C   -0.051845
     6  C   -0.005376
     7  C    0.230578
     8  O   -0.250228
     9  C    0.272652
    10  C   -0.025290
    11  C   -0.005867
    12  C    0.044749
    13  C   -0.077306
    14  C    0.067560
    15  C   -0.005401
    16  C   -0.052726
    17  C    0.003189
    18  C    0.103568
    19  C   -0.092936
    20  C    0.001248
    21  C    0.006483
    22  C   -0.037873
    23  C   -0.012648
    40  P    0.080427
    41  C   -0.097047
    42  C   -0.045305
    43  C   -0.013871
    44  C   -0.074336
    45  C   -0.000954
    46  C    0.227997
    47  C    0.090175
    48  C    0.056079
    49  C   -0.032055
    50  C   -0.024482
    51  C    0.011439
    52  C   -0.111965
    53  C    0.135309
    54  C   -0.115801
    55  C   -0.005296
    56  C    0.017646
    57  C   -0.011112
    58  C   -0.068008
 Electronic spatial extent (au):  <R**2>=          20957.3121
 Charge=             -0.0000 electrons
 Dipole moment (field-independent basis, Debye):
    X=             -0.4805    Y=              1.1921    Z=             -2.6339  Tot=              2.9308
 Quadrupole moment (field-independent basis, Debye-Ang):
   XX=           -246.2056   YY=           -235.1831   ZZ=           -249.1285
   XY=              2.9573   XZ=              1.0772   YZ=              2.2091
 Traceless Quadrupole moment (field-independent basis, Debye-Ang):
   XX=             -2.6999   YY=              8.3226   ZZ=             -5.6228
   XY=              2.9573   XZ=              1.0772   YZ=              2.2091
 Octapole moment (field-independent basis, Debye-Ang**2):
  XXX=              4.6763  YYY=              8.3645  ZZZ=            -23.1085  XYY=             -4.8446
  XXY=              0.0838  XXZ=             33.7536  XZZ=            -11.4159  YZZ=             19.0419
  YYZ=            -50.7784  XYZ=            -10.6200
 Hexadecapole moment (field-independent basis, Debye-Ang**3):
 XXXX=         -13985.9045 YYYY=          -9370.2064 ZZZZ=          -4550.0669 XXXY=           -102.3756
 XXXZ=             45.7389 YYYX=            129.2196 YYYZ=            -24.0785 ZZZX=             17.8049
 ZZZY=            198.5080 XXYY=          -4092.8292 XXZZ=          -3084.9219 YYZZ=          -2367.0387
 XXYZ=            -20.5103 YYXZ=            -12.9383 ZZXY=            -29.9692
 N-N= 5.294031979486D+03 E-N=-1.588040534476D+04  KE= 2.251147051453D+03
 1\1\GINC-NC247\SP\RPBE1PBE\def2TZVP\C39H32O1P2\WALROTHR\12-Feb-2022\0\
 \# PBE1PBE/def2TZVP int=(grid=ultrafine) empiricaldispersion=GD3BJ nmr
 =giao\\XantPhos_3 title\\0,1\P,0,-1.6139528776,1.791583568,-3.51258594
 33\C,0,-1.9754467492,2.5996872747,-1.8906202983\C,0,-3.2397139435,3.11
 0705866,-1.5343520048\C,0,-3.5079026344,3.4360874732,-0.1977784217\C,0
 ,-2.54513357,3.2244697988,0.8045401652\C,0,-1.2679645176,2.7416901409,
 0.4802425628\C,0,-1.0154165964,2.4934143572,-0.878226027\O,0,0.2228811
 771,2.0252362747,-1.2647567123\C,0,-0.1287344101,2.4299480469,1.463793
 0528\C,0,-0.6417552575,2.2664626587,2.9021363169\C,0,0.901011913,3.594
 820803,1.4159459389\C,0,-2.2779968797,0.0910465175,-3.2793904898\C,0,-
 2.126627127,-0.8019457795,-4.3627463059\C,0,-2.6744969947,-2.086941662
 2,-4.2946992745\C,0,-3.341793265,-2.5057482447,-3.1334650789\C,0,-3.46
 19208214,-1.6347277181,-2.0425283961\C,0,-2.9408617806,-0.3339917405,-
 2.114319293\C,0,-2.8850790199,2.6124134321,-4.5594325838\C,0,-2.797892
 7184,4.0099532925,-4.7351459318\C,0,-4.8492819343,3.9782252847,-6.0366
 3141\C,0,-3.7810941341,4.6861853644,-5.4641261389\C,0,-4.9349053823,2.
 5908597869,-5.8689498664\C,0,-3.9588550351,1.9066159588,-5.1287560626\
 H,0,-4.0149436732,3.2171413803,-2.2982243966\H,0,-2.8018947905,3.43400
 97533,1.8471607666\H,0,-4.4930249264,3.826909752,0.0746765839\H,0,-1.3
 760830642,1.4475018968,2.9840417312\H,0,-1.115447529,3.1985100407,3.25
 17630614\H,0,1.2881475242,3.7435433501,0.3953619686\H,0,0.4251835713,4
 .5338036199,1.7469247434\H,0,-1.9567957997,4.5621286135,-4.3079797101\
 H,0,-5.6124585953,4.5097982873,-6.6143246611\H,0,-5.7664429862,2.03190
 66717,-6.3104334127\H,0,-4.0415342653,0.825002968,-4.9928943021\H,0,-1
 .574492351,-0.4809018581,-5.2535725557\H,0,-2.5502948141,-2.7724514015
 ,-5.138074431\H,0,-3.755927982,-3.5175743872,-3.0753488612\H,0,-3.9726
 31678,-1.9623427836,-1.130860113\H,0,-3.0582897642,0.3499334396,-1.268
 5599288\P,0,1.4793262677,-0.1010877003,-2.9331858321\C,0,1.3222564858,
 -0.0575265734,-1.0821087947\C,0,1.8767528498,-1.0550814761,-0.25198764
 63\C,0,1.7432340519,-0.9702824204,1.138291316\C,0,1.0784392638,0.11650
 56501,1.7341818988\C,0,0.5600999777,1.1534090354,0.9472603542\C,0,0.71
 62049477,1.029842045,-0.4460968409\C,0,0.9135142903,-1.7874818292,-3.3
 938186224\C,0,0.2349284194,-2.6434113248,-2.5079411263\C,0,-0.17097106
 89,-3.915493888,-2.9348739948\C,0,0.0902002385,-4.3387093674,-4.244585
 7441\C,0,0.7460681061,-3.4766745137,-5.1379454739\C,0,1.1528345304,-2.
 2034650905,-4.7225625138\C,0,3.3196791604,-0.1966859471,-2.9831476901\
 C,0,4.0468744982,1.0014676527,-2.8488343537\C,0,6.1193323481,-0.263828
 6152,-2.7855703886\C,0,5.4404066472,0.9646391149,-2.7466453769\C,0,5.3
 973850481,-1.4552397299,-2.9269678553\C,0,3.9976745244,-1.4265440778,-
 3.0220969535\H,0,2.4078117505,-1.8995221613,-0.7011845047\H,0,0.981758
 132,0.154160091,2.8232088343\H,0,2.164742674,-1.7579079385,1.770283233
 6\H,0,0.1942850448,2.0578893112,3.5896782178\H,0,1.7524169019,3.374399
 7561,2.0822398619\H,0,3.5186897142,1.9604770967,-2.8588493057\H,0,3.43
 84565913,-2.3593073505,-3.1437087958\H,0,0.008319063,-2.3165795242,-1.
 489776737\H,0,-0.7025955176,-4.572609501,-2.2388187301\H,0,-0.22445669
 85,-5.3348778917,-4.5731073885\H,0,0.9429416112,-3.7952600406,-6.16686
 72844\H,0,1.6531443873,-1.5191612455,-5.4183916084\H,0,5.922014491,-2.
 4155308659,-2.9705173064\H,0,7.2115714484,-0.2890711126,-2.7150402126\
 H,0,6.0010522155,1.900430332,-2.6545769797\H,0,-3.7034326889,5.7697480
 826,-5.5984187285\\Version=ES64L-G09RevE.01\State=1-A\HF=-2261.894895\
 RMSD=7.547e-09\Dipole=-0.2673512,-0.5208102,0.9933914\Quadrupole=-3.33
 02707,2.5870399,0.7432308,-0.5459075,0.8560439,5.2792624\PG=C01 [X(C39
 H32O1P2)]\\@


 YOU CAN WIPE THE SLATE CLEAN, BUT YOU'LL STILL
 HAVE TO EAT A LITTLE CHALK DUST.
 Job cpu time:       1 days  3 hours 35 minutes 12.7 seconds.
 File lengths (MBytes):  RWF=   1320 Int=      0 D2E=      0 Chk=    168 Scr=      1
 Normal termination of Gaussian 09 at Sat Feb 12 14:28:48 2022.
 Initial command:
 /gstore/apps/gaussian/g09.e01-foss-2017a/g09/l1.exe "/local/29510743/Gau-4317.inp" -scrdir="/local/29510743/"
 Entering Link 1 = /gstore/apps/gaussian/g09.e01-foss-2017a/g09/l1.exe PID=      1929.
  
 Copyright (c) 1988,1990,1992,1993,1995,1998,2003,2009,2015,
            Gaussian, Inc.  All Rights Reserved.
  
 This is part of the Gaussian(R) 09 program.  It is based on
 the Gaussian(R) 03 system (copyright 2003, Gaussian, Inc.),
 the Gaussian(R) 98 system (copyright 1998, Gaussian, Inc.),
 the Gaussian(R) 94 system (copyright 1995, Gaussian, Inc.),
 the Gaussian 92(TM) system (copyright 1992, Gaussian, Inc.),
 the Gaussian 90(TM) system (copyright 1990, Gaussian, Inc.),
 the Gaussian 88(TM) system (copyright 1988, Gaussian, Inc.),
 the Gaussian 86(TM) system (copyright 1986, Carnegie Mellon
 University), and the Gaussian 82(TM) system (copyright 1983,
 Carnegie Mellon University). Gaussian is a federally registered
[...]
  1297. RY*(  21) C  57                  0.00000     3.46194   
  1298. RY*(  22) C  57                  0.00000     3.60145   
  1299. RY*(  23) C  57                  0.00000     3.52305   
  1300. RY*(  24) C  57                  0.00000     2.94361   
  1301. RY*(  25) C  57                  0.00000     3.49627   
  1302. RY*(  26) C  57                  0.00000     3.57737   
  1303. RY*(   1) C  58                  0.00564     1.61243   
  1304. RY*(   2) C  58                  0.00185     1.32112   
  1305. RY*(   3) C  58                  0.00145     0.87696   
  1306. RY*(   4) C  58                  0.00128     1.75505   
  1307. RY*(   5) C  58                  0.00084     1.61060   
  1308. RY*(   6) C  58                  0.00040     1.94553   
  1309. RY*(   7) C  58                  0.00034     2.67341   
  1310. RY*(   8) C  58                  0.00019     1.92256   
  1311. RY*(   9) C  58                  0.00012     1.77648   
  1312. RY*(  10) C  58                  0.00008     2.60942   
  1313. RY*(  11) C  58                  0.00008     1.87978   
  1314. RY*(  12) C  58                  0.00004     2.62654   
  1315. RY*(  13) C  58                  0.00004     2.06635   
  1316. RY*(  14) C  58                  0.00002     2.76808   
  1317. RY*(  15) C  58                  0.00002     1.90798   
  1318. RY*(  16) C  58                  0.00000    21.37377   
  1319. RY*(  17) C  58                  0.00001     1.38903   
  1320. RY*(  18) C  58                  0.00000     3.58757   
  1321. RY*(  19) C  58                  0.00000     3.19772   
  1322. RY*(  20) C  58                  0.00000     3.36037   
  1323. RY*(  21) C  58                  0.00000     3.38331   
  1324. RY*(  22) C  58                  0.00000     3.54136   
  1325. RY*(  23) C  58                  0.00000     3.72862   
  1326. RY*(  24) C  58                  0.00000     3.61870   
  1327. RY*(  25) C  58                  0.00000     3.41878   
  1328. RY*(  26) C  58                  0.00000     3.43705   
  1329. RY*(   1) H  59                  0.00107     0.79807   
  1330. RY*(   2) H  59                  0.00028     2.42750   
  1331. RY*(   3) H  59                  0.00017     2.24002   
  1332. RY*(   4) H  59                  0.00010     2.85337   
  1333. RY*(   5) H  59                  0.00002     3.14887   
  1334. RY*(   1) H  60                  0.00046     1.40409   
  1335. RY*(   2) H  60                  0.00018     1.73532   
  1336. RY*(   3) H  60                  0.00016     2.19400   
  1337. RY*(   4) H  60                  0.00010     2.77424   
  1338. RY*(   5) H  60                  0.00002     3.09785   
  1339. RY*(   1) H  61                  0.00037     1.02161   
  1340. RY*(   2) H  61                  0.00019     1.87880   
  1341. RY*(   3) H  61                  0.00011     2.16330   
  1342. RY*(   4) H  61                  0.00008     2.80025   
  1343. RY*(   5) H  61                  0.00001     3.06163   
  1344. RY*(   1) H  62                  0.00053     0.97916   
  1345. RY*(   2) H  62                  0.00013     1.78659   
  1346. RY*(   3) H  62                  0.00009     2.12709   
  1347. RY*(   4) H  62                  0.00007     2.42386   
  1348. RY*(   5) H  62                  0.00001     2.97989   
  1349. RY*(   1) H  63                  0.00049     1.06206   
  1350. RY*(   2) H  63                  0.00011     1.56091   
  1351. RY*(   3) H  63                  0.00009     2.24562   
  1352. RY*(   4) H  63                  0.00006     2.40830   
  1353. RY*(   5) H  63                  0.00000     2.96873   
  1354. RY*(   1) H  64                  0.00091     0.71433   
  1355. RY*(   2) H  64                  0.00027     2.29394   
  1356. RY*(   3) H  64                  0.00012     2.21401   
  1357. RY*(   4) H  64                  0.00009     2.74674   
  1358. RY*(   5) H  64                  0.00002     3.11498   
  1359. RY*(   1) H  65                  0.00113     0.75178   
  1360. RY*(   2) H  65                  0.00031     2.41357   
  1361. RY*(   3) H  65                  0.00014     2.28140   
  1362. RY*(   4) H  65                  0.00011     2.68751   
  1363. RY*(   5) H  65                  0.00003     3.22244   
  1364. RY*(   1) H  66                  0.00142     0.59474   
  1365. RY*(   2) H  66                  0.00027     2.37455   
  1366. RY*(   3) H  66                  0.00023     2.24898   
  1367. RY*(   4) H  66                  0.00012     2.78499   
  1368. RY*(   5) H  66                  0.00003     3.22428   
  1369. RY*(   1) H  67                  0.00038     1.14370   
  1370. RY*(   2) H  67                  0.00019     1.88693   
  1371. RY*(   3) H  67                  0.00018     2.18394   
  1372. RY*(   4) H  67                  0.00013     2.62639   
  1373. RY*(   5) H  67                  0.00001     3.05307   
  1374. RY*(   1) H  68                  0.00032     0.96287   
  1375. RY*(   2) H  68                  0.00020     1.78731   
  1376. RY*(   3) H  68                  0.00013     2.15602   
  1377. RY*(   4) H  68                  0.00008     2.74892   
  1378. RY*(   5) H  68                  0.00002     3.08996   
  1379. RY*(   1) H  69                  0.00038     0.97998   
  1380. RY*(   2) H  69                  0.00020     1.80412   
  1381. RY*(   3) H  69                  0.00012     2.15319   
  1382. RY*(   4) H  69                  0.00009     2.75661   
  1383. RY*(   5) H  69                  0.00002     3.09204   
  1384. RY*(   1) H  70                  0.00084     0.68673   
  1385. RY*(   2) H  70                  0.00029     2.29632   
  1386. RY*(   3) H  70                  0.00015     2.19430   
  1387. RY*(   4) H  70                  0.00008     2.77690   
  1388. RY*(   5) H  70                  0.00002     3.09836   
  1389. RY*(   1) H  71                  0.00041     0.98015   
  1390. RY*(   2) H  71                  0.00020     1.86579   
  1391. RY*(   3) H  71                  0.00011     2.41944   
  1392. RY*(   4) H  71                  0.00011     2.43790   
  1393. RY*(   5) H  71                  0.00002     3.09488   
  1394. RY*(   1) H  72                  0.00033     0.88885   
  1395. RY*(   2) H  72                  0.00020     1.84620   
  1396. RY*(   3) H  72                  0.00011     2.15730   
  1397. RY*(   4) H  72                  0.00008     2.75376   
  1398. RY*(   5) H  72                  0.00002     3.09998   
  1399. RY*(   1) H  73                  0.00036     0.93965   
  1400. RY*(   2) H  73                  0.00020     1.89122   
  1401. RY*(   3) H  73                  0.00012     2.70301   
  1402. RY*(   4) H  73                  0.00011     2.16732   
  1403. RY*(   5) H  73                  0.00002     3.09964   
  1404. RY*(   1) H  74                  0.00038     0.94963   
  1405. RY*(   2) H  74                  0.00020     1.88294   
  1406. RY*(   3) H  74                  0.00012     2.69424   
  1407. RY*(   4) H  74                  0.00011     2.17095   
  1408. RY*(   5) H  74                  0.00002     3.09868   
  1409. BD*(   1) P   1 - C   2          0.03616     0.22392   
  1410. BD*(   1) P   1 - C  12          0.03737     0.23215   
  1411. BD*(   1) P   1 - C  18          0.04427     0.23893   
  1412. BD*(   1) C   2 - C   3          0.02548     0.52797   
  1413. BD*(   1) C   2 - C   7          0.03402     0.52488   
  1414. BD*(   2) C   2 - C   7          0.39551     0.02180  1421(v),1416(v),1469(r)
                                                    1410(v),313(g),184(g)
                                                    1452(r)
  1415. BD*(   1) C   3 - C   4          0.01593     0.54371   
  1416. BD*(   2) C   3 - C   4          0.31942     0.02983  1421(v),1414(v),1438(r)
                                                    1454(r),235(g)
  1417. BD*(   1) C   3 - H  24          0.01577     0.42084   
  1418. BD*(   1) C   4 - C   5          0.01329     0.53645   
  1419. BD*(   1) C   4 - H  26          0.01384     0.40470   
  1420. BD*(   1) C   5 - C   6          0.02096     0.53505   
  1421. BD*(   2) C   5 - C   6          0.35191     0.03060  1416(v),1414(v),1476(r)
                                                    261(g),1428(v),1429(v)
  1422. BD*(   1) C   5 - H  25          0.01482     0.40314   
  1423. BD*(   1) C   6 - C   7          0.03956     0.51987   
  1424. BD*(   1) C   6 - C   9          0.03776     0.36228   
  1425. BD*(   1) C   7 - O   8          0.03298     0.33656   
  1426. BD*(   1) O   8 - C  46          0.03291     0.33587   
  1427. BD*(   1) C   9 - C  10          0.01871     0.33510   
  1428. BD*(   1) C   9 - C  11          0.02803     0.31315   
  1429. BD*(   1) C   9 - C  45          0.03771     0.35972   
  1430. BD*(   1) C  10 - H  27          0.00668     0.37157   
  1431. BD*(   1) C  10 - H  28          0.00699     0.36968   
  1432. BD*(   1) C  10 - H  62          0.00703     0.36985   
  1433. BD*(   1) C  11 - H  29          0.00652     0.38404   
  1434. BD*(   1) C  11 - H  30          0.00727     0.37254   
  1435. BD*(   1) C  11 - H  63          0.00725     0.37292   
  1436. BD*(   1) C  12 - C  13          0.02348     0.52259   
  1437. BD*(   1) C  12 - C  17          0.02899     0.53686   
  1438. BD*(   2) C  12 - C  17          0.36607     0.03011  1445(v),1440(v),1480(r)
                                                    1416(r),573(g),1411(v)
                                                    444(g)
  1439. BD*(   1) C  13 - C  14          0.01679     0.55155   
  1440. BD*(   2) C  13 - C  14          0.31174     0.03574  1445(v),1438(v),1480(r)
                                                    495(g)
  1441. BD*(   1) C  13 - H  35          0.01610     0.41505   
  1442. BD*(   1) C  14 - C  15          0.01508     0.54237   
  1443. BD*(   1) C  14 - H  36          0.01391     0.41152   
  1444. BD*(   1) C  15 - C  16          0.01481     0.54348   
  1445. BD*(   2) C  15 - C  16          0.32888     0.03096  1438(v),1440(v),1485(r)
                                                    547(g),521(g)
  1446. BD*(   1) C  15 - H  37          0.01330     0.40940   
  1447. BD*(   1) C  16 - C  17          0.01650     0.54562   
  1448. BD*(   1) C  16 - H  38          0.01388     0.40753   
  1449. BD*(   1) C  17 - H  39          0.01643     0.41936   
  1450. BD*(   1) C  18 - C  19          0.02226     0.52657   
  1451. BD*(   1) C  18 - C  23          0.02652     0.53950   
  1452. BD*(   2) C  18 - C  23          0.36535     0.03268  1458(v),1454(v),729(g)
                                                    1409(v),1414(r),600(g)
  1453. BD*(   1) C  19 - C  21          0.01544     0.55060   
  1454. BD*(   2) C  19 - C  21          0.31564     0.03457  1458(v),1452(v),1416(r)
                                                    677(g),625(g)
  1455. BD*(   1) C  19 - H  31          0.01591     0.41205   
  1456. BD*(   1) C  20 - C  21          0.01479     0.54154   
  1457. BD*(   1) C  20 - C  22          0.01464     0.54642   
  1458. BD*(   2) C  20 - C  22          0.33000     0.03287  1452(v),1454(v),651(g)
                                                    703(g)
  1459. BD*(   1) C  20 - H  32          0.01314     0.40976   
  1460. BD*(   1) C  21 - H  74          0.01349     0.40946   
  1461. BD*(   1) C  22 - C  23          0.01643     0.54833   
  1462. BD*(   1) C  22 - H  33          0.01375     0.41020   
  1463. BD*(   1) C  23 - H  34          0.01679     0.42410   
  1464. BD*(   1) P  40 - C  41          0.03758     0.21648   
  1465. BD*(   1) P  40 - C  47          0.03459     0.23697   
  1466. BD*(   1) P  40 - C  53          0.04258     0.23056   
  1467. BD*(   1) C  41 - C  42          0.02677     0.52301   
  1468. BD*(   1) C  41 - C  46          0.03443     0.52773   
  1469. BD*(   2) C  41 - C  46          0.38322     0.02499  1471(v),1476(v),1414(r)
                                                    1495(r),1466(v),1465(v)
                                                    993(g),864(g),1480(r)
  1470. BD*(   1) C  42 - C  43          0.01628     0.54671   
  1471. BD*(   2) C  42 - C  43          0.31345     0.03054  1476(v),1469(v),1480(r)
                                                    1495(r),915(g)
  1472. BD*(   1) C  42 - H  59          0.01565     0.41614   
  1473. BD*(   1) C  43 - C  44          0.01333     0.53621   
  1474. BD*(   1) C  43 - H  61          0.01388     0.40293   
  1475. BD*(   1) C  44 - C  45          0.02059     0.53794   
  1476. BD*(   2) C  44 - C  45          0.34246     0.03182  1471(v),1469(v),1421(r)
                                                    941(g),1428(v),1424(v)
  1477. BD*(   1) C  44 - H  60          0.01481     0.40278   
  1478. BD*(   1) C  45 - C  46          0.03909     0.51512   
  1479. BD*(   1) C  47 - C  48          0.02773     0.53483   
  1480. BD*(   2) C  47 - C  48          0.36644     0.02990  1485(v),1490(v),1471(r)
                                                    1438(r),1440(r),1045(g)
                                                    1466(v),1495(r),1020(g)
                                                    1469(r)
  1481. BD*(   1) C  47 - C  52          0.02311     0.51957   
  1482. BD*(   1) C  48 - C  49          0.01678     0.54798   
  1483. BD*(   1) C  48 - H  66          0.01646     0.42632   
  1484. BD*(   1) C  49 - C  50          0.01491     0.54200   
  1485. BD*(   2) C  49 - C  50          0.33077     0.02958  1480(v),1490(v),1445(r)
                                                    1097(g),1071(g)
  1486. BD*(   1) C  49 - H  67          0.01384     0.40949   
  1487. BD*(   1) C  50 - C  51          0.01482     0.53686   
  1488. BD*(   1) C  50 - H  68          0.01326     0.40668   
  1489. BD*(   1) C  51 - C  52          0.01589     0.54503   
  1490. BD*(   2) C  51 - C  52          0.31862     0.02912  1485(v),1480(v),1123(g)
                                                    1495(r),1149(g)
  1491. BD*(   1) C  51 - H  69          0.01365     0.40623   
  1492. BD*(   1) C  52 - H  70          0.01590     0.40578   
  1493. BD*(   1) C  53 - C  54          0.02254     0.53020   
  1494. BD*(   1) C  53 - C  58          0.02924     0.53551   
  1495. BD*(   2) C  53 - C  58          0.36475     0.03077  1501(v),1497(v),1469(r)
                                                    1471(r),1464(v),1305(g)
                                                    1480(r),1490(r),1176(g)
                                                    1201(v)
  1496. BD*(   1) C  54 - C  56          0.01556     0.54955   
  1497. BD*(   2) C  54 - C  56          0.31390     0.03416  1501(v),1495(v),1253(g)
                                                    1201(g)
  1498. BD*(   1) C  54 - H  64          0.01597     0.40717   
  1499. BD*(   1) C  55 - C  56          0.01478     0.53882   
  1500. BD*(   1) C  55 - C  57          0.01457     0.54391   
  1501. BD*(   2) C  55 - C  57          0.32944     0.03100  1495(v),1497(v),1227(g)
                                                    1279(g)
  1502. BD*(   1) C  55 - H  72          0.01302     0.40786   
  1503. BD*(   1) C  56 - H  73          0.01336     0.40780   
  1504. BD*(   1) C  57 - C  58          0.01724     0.54626   
  1505. BD*(   1) C  57 - H  71          0.01396     0.40666   
  1506. BD*(   1) C  58 - H  65          0.01645     0.41768   
       -------------------------------
              Total Lewis  295.67796  ( 97.2625%)
        Valence non-Lewis    7.74392  (  2.5473%)
        Rydberg non-Lewis    0.57812  (  0.1902%)
       -------------------------------
            Total unit  1  304.00000  (100.0000%)
           Charge unit  1    0.00000
 1\1\GINC-NC247\SP\RPBE1PBE\def2TZVP\C39H32O1P2\WALROTHR\12-Feb-2022\0\
 \# PBE1PBE/def2TZVP int=(grid=ultrafine) empiricaldispersion=GD3BJ pop
 =nbo guess=read geom=check\\XantPhos_3 title\\0,1\P,0,-1.6139528776,1.
 791583568,-3.5125859433\C,0,-1.9754467492,2.5996872747,-1.8906202983\C
 ,0,-3.2397139435,3.110705866,-1.5343520048\C,0,-3.5079026344,3.4360874
 732,-0.1977784217\C,0,-2.54513357,3.2244697988,0.8045401652\C,0,-1.267
 9645176,2.7416901409,0.4802425628\C,0,-1.0154165964,2.4934143572,-0.87
 8226027\O,0,0.2228811771,2.0252362747,-1.2647567123\C,0,-0.1287344101,
 2.4299480469,1.4637930528\C,0,-0.6417552575,2.2664626587,2.9021363169\
 C,0,0.901011913,3.594820803,1.4159459389\C,0,-2.2779968797,0.091046517
 5,-3.2793904898\C,0,-2.126627127,-0.8019457795,-4.3627463059\C,0,-2.67
 44969947,-2.0869416622,-4.2946992745\C,0,-3.341793265,-2.5057482447,-3
 .1334650789\C,0,-3.4619208214,-1.6347277181,-2.0425283961\C,0,-2.94086
 17806,-0.3339917405,-2.114319293\C,0,-2.8850790199,2.6124134321,-4.559
 4325838\C,0,-2.7978927184,4.0099532925,-4.7351459318\C,0,-4.8492819343
 ,3.9782252847,-6.03663141\C,0,-3.7810941341,4.6861853644,-5.4641261389
 \C,0,-4.9349053823,2.5908597869,-5.8689498664\C,0,-3.9588550351,1.9066
 159588,-5.1287560626\H,0,-4.0149436732,3.2171413803,-2.2982243966\H,0,
 -2.8018947905,3.4340097533,1.8471607666\H,0,-4.4930249264,3.826909752,
 0.0746765839\H,0,-1.3760830642,1.4475018968,2.9840417312\H,0,-1.115447
 529,3.1985100407,3.2517630614\H,0,1.2881475242,3.7435433501,0.39536196
 86\H,0,0.4251835713,4.5338036199,1.7469247434\H,0,-1.9567957997,4.5621
 286135,-4.3079797101\H,0,-5.6124585953,4.5097982873,-6.6143246611\H,0,
 -5.7664429862,2.0319066717,-6.3104334127\H,0,-4.0415342653,0.825002968
 ,-4.9928943021\H,0,-1.574492351,-0.4809018581,-5.2535725557\H,0,-2.550
 2948141,-2.7724514015,-5.138074431\H,0,-3.755927982,-3.5175743872,-3.0
 753488612\H,0,-3.972631678,-1.9623427836,-1.130860113\H,0,-3.058289764
 2,0.3499334396,-1.2685599288\P,0,1.4793262677,-0.1010877003,-2.9331858
 321\C,0,1.3222564858,-0.0575265734,-1.0821087947\C,0,1.8767528498,-1.0
 550814761,-0.2519876463\C,0,1.7432340519,-0.9702824204,1.138291316\C,0
 ,1.0784392638,0.1165056501,1.7341818988\C,0,0.5600999777,1.1534090354,
 0.9472603542\C,0,0.7162049477,1.029842045,-0.4460968409\C,0,0.91351429
 03,-1.7874818292,-3.3938186224\C,0,0.2349284194,-2.6434113248,-2.50794
 11263\C,0,-0.1709710689,-3.915493888,-2.9348739948\C,0,0.0902002385,-4
 .3387093674,-4.2445857441\C,0,0.7460681061,-3.4766745137,-5.1379454739
 \C,0,1.1528345304,-2.2034650905,-4.7225625138\C,0,3.3196791604,-0.1966
 859471,-2.9831476901\C,0,4.0468744982,1.0014676527,-2.8488343537\C,0,6
 .1193323481,-0.2638286152,-2.7855703886\C,0,5.4404066472,0.9646391149,
 -2.7466453769\C,0,5.3973850481,-1.4552397299,-2.9269678553\C,0,3.99767
 45244,-1.4265440778,-3.0220969535\H,0,2.4078117505,-1.8995221613,-0.70
 11845047\H,0,0.981758132,0.154160091,2.8232088343\H,0,2.164742674,-1.7
 579079385,1.7702832336\H,0,0.1942850448,2.0578893112,3.5896782178\H,0,
 1.7524169019,3.3743997561,2.0822398619\H,0,3.5186897142,1.9604770967,-
 2.8588493057\H,0,3.4384565913,-2.3593073505,-3.1437087958\H,0,0.008319
 063,-2.3165795242,-1.489776737\H,0,-0.7025955176,-4.572609501,-2.23881
 87301\H,0,-0.2244566985,-5.3348778917,-4.5731073885\H,0,0.9429416112,-
 3.7952600406,-6.1668672844\H,0,1.6531443873,-1.5191612455,-5.418391608
 4\H,0,5.922014491,-2.4155308659,-2.9705173064\H,0,7.2115714484,-0.2890
 711126,-2.7150402126\H,0,6.0010522155,1.900430332,-2.6545769797\H,0,-3
 .7034326889,5.7697480826,-5.5984187285\\Version=ES64L-G09RevE.01\State
 =1-A\HF=-2261.894895\RMSD=6.776e-09\Dipole=-0.2673521,-0.5208097,0.993
 3927\Quadrupole=-3.3302808,2.5870336,0.7432473,-0.54589,0.8560309,5.27
 92769\PG=C01 [X(C39H32O1P2)]\\@


 Democracy is the recurrent suspicion that more than half of the people
 are right more than half of the time.
 -- E. B. White
 Job cpu time:       0 days  2 hours 23 minutes 35.8 seconds.
 File lengths (MBytes):  RWF=   1164 Int=      0 D2E=      0 Chk=    168 Scr=      1
 Normal termination of Gaussian 09 at Sat Feb 12 14:37:55 2022.
