 Entering Gaussian System, Link 0=g09
 Input=XantPhos_3.com
 Output=XantPhos_3.log
 Initial command:
 /gstore/apps/gaussian/g09.e01-foss-2017a/g09/l1.exe "/local/21251495/Gau-19193.inp" -scrdir="/local/21251495/"
 Entering Link 1 = /gstore/apps/gaussian/g09.e01-foss-2017a/g09/l1.exe PID=     19204.
  
 Copyright (c) 1988,1990,1992,1993,1995,1998,2003,2009,2015,
            Gaussian, Inc.  All Rights Reserved.
  
 This is part of the Gaussian(R) 09 program.  It is based on
 the Gaussian(R) 03 system (copyright 2003, Gaussian, Inc.),
 the Gaussian(R) 98 system (copyright 1998, Gaussian, Inc.),
 the Gaussian(R) 94 system (copyright 1995, Gaussian, Inc.),
 the Gaussian 92(TM) system (copyright 1992, Gaussian, Inc.),
 the Gaussian 90(TM) system (copyright 1990, Gaussian, Inc.),
 the Gaussian 88(TM) system (copyright 1988, Gaussian, Inc.),
 the Gaussian 86(TM) system (copyright 1986, Carnegie Mellon
 University), and the Gaussian 82(TM) system (copyright 1983,
 Carnegie Mellon University). Gaussian is a federally registered
 trademark of Gaussian, Inc.
  
 This software contains proprietary and confidential information,
 including trade secrets, belonging to Gaussian, Inc.
  
 This software is provided under written license and may be
 used, copied, transmitted, or stored only in accord with that
 written license.
  
 The following legend is applicable only to US Government
 contracts under FAR:
  
                    RESTRICTED RIGHTS LEGEND
  
 Use, reproduction and disclosure by the US Government is
 subject to restrictions as set forth in subparagraphs (a)
 and (c) of the Commercial Computer Software - Restricted
 Rights clause in FAR 52.227-19.
  
 Gaussian, Inc.
 340 Quinnipiac St., Bldg. 40, Wallingford CT 06492
  
  
 ---------------------------------------------------------------
 Warning -- This program may not be used in any manner that
 competes with the business of Gaussian, Inc. or will provide
 assistance to any competitor of Gaussian, Inc.  The licensee
 of this program is prohibited from giving any competitor of
 Gaussian, Inc. access to this program.  By using this program,
 the user acknowledges that Gaussian, Inc. is engaged in the
 business of creating and licensing software in the field of
 computational chemistry and represents and warrants to the
 licensee that it is not a competitor of Gaussian, Inc. and that
 it will not use this program in any manner prohibited above.
 ---------------------------------------------------------------
  

 Cite this work as:
 Gaussian 09, Revision E.01,
 M. J. Frisch, G. W. Trucks, H. B. Schlegel, G. E. Scuseria, 
 M. A. Robb, J. R. Cheeseman, G. Scalmani, V. Barone, B. Mennucci, 
 G. A. Petersson, H. Nakatsuji, M. Caricato, X. Li, H. P. Hratchian, 
 A. F. Izmaylov, J. Bloino, G. Zheng, J. L. Sonnenberg, M. Hada, 
 M. Ehara, K. Toyota, R. Fukuda, J. Hasegawa, M. Ishida, T. Nakajima, 
 Y. Honda, O. Kitao, H. Nakai, T. Vreven, J. A. Montgomery, Jr., 
 J. E. Peralta, F. Ogliaro, M. Bearpark, J. J. Heyd, E. Brothers, 
 K. N. Kudin, V. N. Staroverov, T. Keith, R. Kobayashi, J. Normand, 
 K. Raghavachari, A. Rendell, J. C. Burant, S. S. Iyengar, J. Tomasi, 
 M. Cossi, N. Rega, J. M. Millam, M. Klene, J. E. Knox, J. B. Cross, 
 V. Bakken, C. Adamo, J. Jaramillo, R. Gomperts, R. E. Stratmann, 
 O. Yazyev, A. J. Austin, R. Cammi, C. Pomelli, J. W. Ochterski, 
 R. L. Martin, K. Morokuma, V. G. Zakrzewski, G. A. Voth, 
 P. Salvador, J. J. Dannenberg, S. Dapprich, A. D. Daniels, 
 O. Farkas, J. B. Foresman, J. V. Ortiz, J. Cioslowski, 
 and D. J. Fox, Gaussian, Inc., Wallingford CT, 2013.
 
 ******************************************
 Gaussian 09:  ES64L-G09RevE.01 30-Nov-2015
                17-Nov-2021 
 ******************************************
 %nprocs=14
 Will use up to   14 processors via shared memory.
 %mem=128GB
 %chk=XantPhos_3.chk
 ----------------------------------------------------------------------
 # PBEPBE gen 6D pseudo=read scf=maxcycles=500 denfit int=(grid=ultrafi
 ne) empiricaldispersion=GD3BJ opt freq=noraman
 ----------------------------------------------------------------------
 1/14=-1,18=20,19=15,26=4,38=1/1,3;
 2/9=110,12=2,17=6,18=5,40=1/2;
 3/5=7,8=2,11=2,16=1,17=8,25=1,30=1,71=1,74=1009,75=-5,82=47,124=41/1,2,3;
 4//1;
 5/5=2,7=500,38=5/2;
 6/7=2,8=2,9=2,10=2,28=1/1;
 7//1,2,3,16;
 1/14=-1,18=20,19=15,26=4/3(2);
 2/9=110/2;
 99//99;
 2/9=110/2;
 3/5=7,6=1,8=2,11=2,16=1,17=8,25=1,30=1,71=1,74=1009,75=-5,82=7,124=41/1,2,3;
 4/5=5,16=3,69=1/1;
 5/5=2,7=500,38=5/2;
 7//1,2,3,16;
 1/14=-1,18=20,19=15,26=4/3(-5);
 2/9=110/2;
 6/7=2,8=2,9=2,10=2,19=2,28=1/1;
 99/9=1/99;
 --------
 XantPhos
 --------
 Symbolic Z-matrix:
 Charge =  0 Multiplicity = 1
 P                    -1.6577    1.6031   -3.5446 
 C                    -2.0879    2.309    -1.8587 
 C                    -3.3937    2.6808   -1.4731 
 C                    -3.6487    3.1232   -0.1593 
 C                    -2.6131    3.1517    0.7973 
 C                    -1.3039    2.7588    0.4335 
 C                    -1.0609    2.4061   -0.9134 
 O                     0.1975    2.0715   -1.3035 
 C                    -0.1315    2.6234    1.4285 
 C                    -0.642     2.3794    2.8695 
 C                     0.6918    3.923     1.4175 
 C                    -2.3627   -0.1348   -3.5117 
 C                    -2.2932   -0.9349   -4.6724 
 C                    -2.8539   -2.2264   -4.6932 
 C                    -3.4738   -2.7428   -3.5409 
 C                    -3.5276   -1.9658   -2.3694 
 C                    -2.9744   -0.6708   -2.3561 
 C                    -2.8988    2.5894   -4.5707 
 C                    -2.9092    3.9992   -4.4732 
 C                    -4.7571    4.1444   -6.0544 
 C                    -3.8261    4.7739   -5.2092 
 C                    -4.7676    2.7417   -6.1565 
 C                    -3.8468    1.9723   -5.4187 
 H                    -4.2066    2.6154   -2.1824 
 H                    -2.8519    3.4553    1.8042 
 H                    -4.6514    3.4098    0.1238 
 H                    -1.2338    1.4653    2.9305 
 H                    -1.2569    3.2025    3.2306 
 H                     1.0759    4.1412    0.4203 
 H                     0.0897    4.7768    1.729 
 H                    -2.1994    4.4952   -3.8267 
 H                    -5.4617    4.7357   -6.6212 
 H                    -5.4847    2.2531   -6.8002 
 H                    -3.8913    0.8995   -5.5109 
 H                    -1.8203   -0.5494   -5.5638 
 H                    -2.7978   -2.8254   -5.5903 
 H                    -3.8964   -3.7369   -3.5524 
 H                    -3.9944   -2.3616   -1.4793 
 H                    -3.031    -0.094    -1.4454 
 P                     1.5387   -0.0671   -2.867 
 C                     1.5313    0.1442   -0.9996 
 C                     2.2118   -0.727    -0.1228 
 C                     2.1839   -0.5041    1.2686 
 C                     1.4584    0.5801    1.8038 
 C                     0.7574    1.4565    0.9427 
 C                     0.8413    1.2323   -0.4514 
 C                     0.8246   -1.7558   -3.2469 
 C                     0.2474   -2.5642   -2.244 
 C                    -0.2408   -3.8491   -2.5513 
 C                    -0.1635   -4.3365   -3.8694 
 C                     0.3917   -3.5314   -4.8813 
 C                     0.8751   -2.2457   -4.5703 
 C                     3.4038   -0.3413   -2.9667 
 C                     4.2692    0.6733   -2.4993 
 C                     6.223    -0.6798   -3.0368 
 C                     5.6674    0.5112   -2.5361 
 C                     5.376    -1.7052   -3.4945 
 C                     3.978    -1.5371   -3.4564 
 H                     2.7658   -1.565    -0.522 
 H                     1.4454    0.7104    2.8742 
 H                     2.7155   -1.1745    1.9287 
 H                     0.1754    2.2991    3.5847 
 H                     1.5481    3.8558    2.0891 
 H                     3.8543    1.592    -2.1103 
 H                     3.3579   -2.3489   -3.801 
 H                     0.1742   -2.2053   -1.2285 
 H                    -0.6794   -4.4581   -1.7745 
 H                    -0.5387   -5.3218   -4.1047 
 H                     0.4475   -3.8999   -5.8953 
 H                     1.3121   -1.6391   -5.3505 
 H                     5.7981   -2.6246   -3.8738 
 H                     7.2954   -0.8072   -3.0671 
 H                     6.3119    1.3019   -2.1807 
 H                    -3.8122    5.8509   -5.1251 
 Pd                    0.676     1.7727   -4.2054 
 Cl                    2.8329    2.0935   -5.0433 
 Cl                    0.0899    3.5683   -5.5792 
 

 GradGradGradGradGradGradGradGradGradGradGradGradGradGradGradGradGradGrad
 Berny optimization.
 Initialization pass.
                           ----------------------------
                           !    Initial Parameters    !
                           ! (Angstroms and Degrees)  !
 --------------------------                            --------------------------
 ! Name  Definition              Value          Derivative Info.                !
 --------------------------------------------------------------------------------
 ! R1    R(1,2)                  1.8777         estimate D2E/DX2                !
 ! R2    R(1,12)                 1.8757         estimate D2E/DX2                !
 ! R3    R(1,18)                 1.8884         estimate D2E/DX2                !
 ! R4    R(1,75)                 2.4314         estimate D2E/DX2                !
 ! R5    R(2,3)                  1.4114         estimate D2E/DX2                !
 ! R6    R(2,7)                  1.3992         estimate D2E/DX2                !
 ! R7    R(3,4)                  1.4095         estimate D2E/DX2                !
 ! R8    R(3,24)                 1.0808         estimate D2E/DX2                !
 ! R9    R(4,5)                  1.4101         estimate D2E/DX2                !
 ! R10   R(4,26)                 1.0806         estimate D2E/DX2                !
 ! R11   R(5,6)                  1.4145         estimate D2E/DX2                !
 ! R12   R(5,25)                 1.0784         estimate D2E/DX2                !
 ! R13   R(6,7)                  1.4134         estimate D2E/DX2                !
 ! R14   R(6,9)                  1.5437         estimate D2E/DX2                !
 ! R15   R(7,8)                  1.3593         estimate D2E/DX2                !
 ! R16   R(8,46)                 1.3582         estimate D2E/DX2                !
 ! R17   R(9,10)                 1.5481         estimate D2E/DX2                !
 ! R18   R(9,11)                 1.5385         estimate D2E/DX2                !
 ! R19   R(9,45)                 1.5453         estimate D2E/DX2                !
 ! R20   R(10,27)                1.0907         estimate D2E/DX2                !
 ! R21   R(10,28)                1.089          estimate D2E/DX2                !
 ! R22   R(10,62)                1.0891         estimate D2E/DX2                !
 ! R23   R(11,29)                1.0907         estimate D2E/DX2                !
 ! R24   R(11,30)                1.0902         estimate D2E/DX2                !
 ! R25   R(11,63)                1.0903         estimate D2E/DX2                !
 ! R26   R(12,13)                1.4115         estimate D2E/DX2                !
 ! R27   R(12,17)                1.4131         estimate D2E/DX2                !
 ! R28   R(13,14)                1.4081         estimate D2E/DX2                !
 ! R29   R(13,35)                1.0802         estimate D2E/DX2                !
 ! R30   R(14,15)                1.4067         estimate D2E/DX2                !
 ! R31   R(14,36)                1.0802         estimate D2E/DX2                !
 ! R32   R(15,16)                1.4068         estimate D2E/DX2                !
 ! R33   R(15,37)                1.0803         estimate D2E/DX2                !
 ! R34   R(16,17)                1.4083         estimate D2E/DX2                !
 ! R35   R(16,38)                1.0802         estimate D2E/DX2                !
 ! R36   R(17,39)                1.0795         estimate D2E/DX2                !
 ! R37   R(18,19)                1.4132         estimate D2E/DX2                !
 ! R38   R(18,23)                1.4137         estimate D2E/DX2                !
 ! R39   R(19,21)                1.408          estimate D2E/DX2                !
 ! R40   R(19,31)                1.0806         estimate D2E/DX2                !
 ! R41   R(20,21)                1.4062         estimate D2E/DX2                !
 ! R42   R(20,22)                1.4065         estimate D2E/DX2                !
 ! R43   R(20,32)                1.0804         estimate D2E/DX2                !
 ! R44   R(21,74)                1.0804         estimate D2E/DX2                !
 ! R45   R(22,23)                1.4086         estimate D2E/DX2                !
 ! R46   R(22,33)                1.0804         estimate D2E/DX2                !
 ! R47   R(23,34)                1.0777         estimate D2E/DX2                !
 ! R48   R(40,41)                1.8793         estimate D2E/DX2                !
 ! R49   R(40,47)                1.8724         estimate D2E/DX2                !
 ! R50   R(40,53)                1.8878         estimate D2E/DX2                !
 ! R51   R(40,75)                2.4332         estimate D2E/DX2                !
 ! R52   R(41,42)                1.411          estimate D2E/DX2                !
 ! R53   R(41,46)                1.4002         estimate D2E/DX2                !
 ! R54   R(42,43)                1.4094         estimate D2E/DX2                !
 ! R55   R(42,59)                1.081          estimate D2E/DX2                !
 ! R56   R(43,44)                1.4101         estimate D2E/DX2                !
 ! R57   R(43,61)                1.0806         estimate D2E/DX2                !
 ! R58   R(44,45)                1.4146         estimate D2E/DX2                !
 ! R59   R(44,60)                1.0784         estimate D2E/DX2                !
 ! R60   R(45,46)                1.4145         estimate D2E/DX2                !
 ! R61   R(47,48)                1.4116         estimate D2E/DX2                !
 ! R62   R(47,52)                1.4121         estimate D2E/DX2                !
 ! R63   R(48,49)                1.4085         estimate D2E/DX2                !
 ! R64   R(48,66)                1.0795         estimate D2E/DX2                !
 ! R65   R(49,50)                1.4075         estimate D2E/DX2                !
 ! R66   R(49,67)                1.0801         estimate D2E/DX2                !
 ! R67   R(50,51)                1.4073         estimate D2E/DX2                !
 ! R68   R(50,68)                1.0803         estimate D2E/DX2                !
 ! R69   R(51,52)                1.4083         estimate D2E/DX2                !
 ! R70   R(51,69)                1.0803         estimate D2E/DX2                !
 ! R71   R(52,70)                1.0806         estimate D2E/DX2                !
 ! R72   R(53,54)                1.4131         estimate D2E/DX2                !
 ! R73   R(53,58)                1.414          estimate D2E/DX2                !
 ! R74   R(54,56)                1.408          estimate D2E/DX2                !
 ! R75   R(54,64)                1.0805         estimate D2E/DX2                !
 ! R76   R(55,56)                1.4064         estimate D2E/DX2                !
 ! R77   R(55,57)                1.4065         estimate D2E/DX2                !
 ! R78   R(55,72)                1.0804         estimate D2E/DX2                !
 ! R79   R(56,73)                1.0802         estimate D2E/DX2                !
 ! R80   R(57,58)                1.4086         estimate D2E/DX2                !
 ! R81   R(57,71)                1.0804         estimate D2E/DX2                !
 ! R82   R(58,65)                1.0781         estimate D2E/DX2                !
 ! R83   R(75,76)                2.3361         estimate D2E/DX2                !
 ! R84   R(75,77)                2.3356         estimate D2E/DX2                !
 ! A1    A(2,1,12)             104.268          estimate D2E/DX2                !
 ! A2    A(2,1,18)              98.1025         estimate D2E/DX2                !
 ! A3    A(2,1,75)             115.9579         estimate D2E/DX2                !
 ! A4    A(12,1,18)            104.2662         estimate D2E/DX2                !
 ! A5    A(12,1,75)            115.477          estimate D2E/DX2                !
 ! A6    A(18,1,75)            116.5331         estimate D2E/DX2                !
 ! A7    A(1,2,3)              123.801          estimate D2E/DX2                !
 ! A8    A(1,2,7)              117.6795         estimate D2E/DX2                !
 ! A9    A(3,2,7)              118.4388         estimate D2E/DX2                !
 ! A10   A(2,3,4)              120.3115         estimate D2E/DX2                !
 ! A11   A(2,3,24)             120.0401         estimate D2E/DX2                !
 ! A12   A(4,3,24)             119.6439         estimate D2E/DX2                !
 ! A13   A(3,4,5)              120.3841         estimate D2E/DX2                !
 ! A14   A(3,4,26)             119.6896         estimate D2E/DX2                !
 ! A15   A(5,4,26)             119.8934         estimate D2E/DX2                !
 ! A16   A(4,5,6)              119.9778         estimate D2E/DX2                !
 ! A17   A(4,5,25)             118.4542         estimate D2E/DX2                !
 ! A18   A(6,5,25)             121.5527         estimate D2E/DX2                !
 ! A19   A(5,6,7)              118.2654         estimate D2E/DX2                !
 ! A20   A(5,6,9)              124.1632         estimate D2E/DX2                !
 ! A21   A(7,6,9)              117.5029         estimate D2E/DX2                !
 ! A22   A(2,7,6)              122.3409         estimate D2E/DX2                !
 ! A23   A(2,7,8)              117.9394         estimate D2E/DX2                !
 ! A24   A(6,7,8)              119.6095         estimate D2E/DX2                !
 ! A25   A(7,8,46)             114.2588         estimate D2E/DX2                !
 ! A26   A(6,9,10)             111.3063         estimate D2E/DX2                !
 ! A27   A(6,9,11)             109.1312         estimate D2E/DX2                !
 ! A28   A(6,9,45)             107.4871         estimate D2E/DX2                !
 ! A29   A(10,9,11)            108.437          estimate D2E/DX2                !
 ! A30   A(10,9,45)            111.3032         estimate D2E/DX2                !
 ! A31   A(11,9,45)            109.1363         estimate D2E/DX2                !
 ! A32   A(9,10,27)            111.29           estimate D2E/DX2                !
 ! A33   A(9,10,28)            112.0679         estimate D2E/DX2                !
 ! A34   A(9,10,62)            112.0484         estimate D2E/DX2                !
 ! A35   A(27,10,28)           107.9713         estimate D2E/DX2                !
 ! A36   A(27,10,62)           107.9824         estimate D2E/DX2                !
 ! A37   A(28,10,62)           105.1743         estimate D2E/DX2                !
 ! A38   A(9,11,29)            111.3458         estimate D2E/DX2                !
 ! A39   A(9,11,30)            111.3441         estimate D2E/DX2                !
 ! A40   A(9,11,63)            111.3344         estimate D2E/DX2                !
 ! A41   A(29,11,30)           107.4012         estimate D2E/DX2                !
 ! A42   A(29,11,63)           107.3931         estimate D2E/DX2                !
 ! A43   A(30,11,63)           107.8192         estimate D2E/DX2                !
 ! A44   A(1,12,13)            119.4901         estimate D2E/DX2                !
 ! A45   A(1,12,17)            121.9022         estimate D2E/DX2                !
 ! A46   A(13,12,17)           118.6062         estimate D2E/DX2                !
 ! A47   A(12,13,14)           120.8275         estimate D2E/DX2                !
 ! A48   A(12,13,35)           119.8589         estimate D2E/DX2                !
 ! A49   A(14,13,35)           119.3048         estimate D2E/DX2                !
 ! A50   A(13,14,15)           120.0053         estimate D2E/DX2                !
 ! A51   A(13,14,36)           120.014          estimate D2E/DX2                !
 ! A52   A(15,14,36)           119.9767         estimate D2E/DX2                !
 ! A53   A(14,15,16)           119.7523         estimate D2E/DX2                !
 ! A54   A(14,15,37)           120.0995         estimate D2E/DX2                !
 ! A55   A(16,15,37)           120.1441         estimate D2E/DX2                !
 ! A56   A(15,16,17)           120.049          estimate D2E/DX2                !
 ! A57   A(15,16,38)           120.0228         estimate D2E/DX2                !
 ! A58   A(17,16,38)           119.9281         estimate D2E/DX2                !
 ! A59   A(12,17,16)           120.7381         estimate D2E/DX2                !
 ! A60   A(12,17,39)           120.6593         estimate D2E/DX2                !
 ! A61   A(16,17,39)           118.6021         estimate D2E/DX2                !
 ! A62   A(1,18,19)            119.2347         estimate D2E/DX2                !
 ! A63   A(1,18,23)            122.5928         estimate D2E/DX2                !
 ! A64   A(19,18,23)           118.1579         estimate D2E/DX2                !
 ! A65   A(18,19,21)           121.1716         estimate D2E/DX2                !
 ! A66   A(18,19,31)           119.6249         estimate D2E/DX2                !
 ! A67   A(21,19,31)           119.2029         estimate D2E/DX2                !
 ! A68   A(21,20,22)           119.6726         estimate D2E/DX2                !
 ! A69   A(21,20,32)           120.1377         estimate D2E/DX2                !
 ! A70   A(22,20,32)           120.1897         estimate D2E/DX2                !
 ! A71   A(19,21,20)           119.9345         estimate D2E/DX2                !
 ! A72   A(19,21,74)           119.9614         estimate D2E/DX2                !
 ! A73   A(20,21,74)           120.104          estimate D2E/DX2                !
 ! A74   A(20,22,23)           120.1225         estimate D2E/DX2                !
 ! A75   A(20,22,33)           119.9491         estimate D2E/DX2                !
 ! A76   A(23,22,33)           119.9283         estimate D2E/DX2                !
 ! A77   A(18,23,22)           120.9373         estimate D2E/DX2                !
 ! A78   A(18,23,34)           120.8999         estimate D2E/DX2                !
 ! A79   A(22,23,34)           118.16           estimate D2E/DX2                !
 ! A80   A(41,40,47)           107.548          estimate D2E/DX2                !
 ! A81   A(41,40,53)            94.169          estimate D2E/DX2                !
 ! A82   A(41,40,75)           117.3972         estimate D2E/DX2                !
 ! A83   A(47,40,53)           103.5964         estimate D2E/DX2                !
 ! A84   A(47,40,75)           115.7924         estimate D2E/DX2                !
 ! A85   A(53,40,75)           115.5356         estimate D2E/DX2                !
 ! A86   A(40,41,42)           123.1032         estimate D2E/DX2                !
 ! A87   A(40,41,46)           118.577          estimate D2E/DX2                !
 ! A88   A(42,41,46)           118.3066         estimate D2E/DX2                !
 ! A89   A(41,42,43)           120.416          estimate D2E/DX2                !
 ! A90   A(41,42,59)           119.7585         estimate D2E/DX2                !
 ! A91   A(43,42,59)           119.8228         estimate D2E/DX2                !
 ! A92   A(42,43,44)           120.4305         estimate D2E/DX2                !
 ! A93   A(42,43,61)           119.682          estimate D2E/DX2                !
 ! A94   A(44,43,61)           119.8853         estimate D2E/DX2                !
 ! A95   A(43,44,45)           120.0199         estimate D2E/DX2                !
 ! A96   A(43,44,60)           118.4152         estimate D2E/DX2                !
 ! A97   A(45,44,60)           121.5608         estimate D2E/DX2                !
 ! A98   A(9,45,44)            124.1633         estimate D2E/DX2                !
 ! A99   A(9,45,46)            117.6236         estimate D2E/DX2                !
 ! A100  A(44,45,46)           118.188          estimate D2E/DX2                !
 ! A101  A(8,46,41)            117.9108         estimate D2E/DX2                !
 ! A102  A(8,46,45)            119.4894         estimate D2E/DX2                !
 ! A103  A(41,46,45)           122.5656         estimate D2E/DX2                !
 ! A104  A(40,47,48)           121.891          estimate D2E/DX2                !
 ! A105  A(40,47,52)           119.3017         estimate D2E/DX2                !
 ! A106  A(48,47,52)           118.8038         estimate D2E/DX2                !
 ! A107  A(47,48,49)           120.6095         estimate D2E/DX2                !
 ! A108  A(47,48,66)           120.3762         estimate D2E/DX2                !
 ! A109  A(49,48,66)           119.0144         estimate D2E/DX2                !
 ! A110  A(48,49,50)           120.0804         estimate D2E/DX2                !
 ! A111  A(48,49,67)           119.8811         estimate D2E/DX2                !
 ! A112  A(50,49,67)           120.0377         estimate D2E/DX2                !
 ! A113  A(49,50,51)           119.7989         estimate D2E/DX2                !
 ! A114  A(49,50,68)           120.0512         estimate D2E/DX2                !
 ! A115  A(51,50,68)           120.147          estimate D2E/DX2                !
 ! A116  A(50,51,52)           119.9283         estimate D2E/DX2                !
 ! A117  A(50,51,69)           120.0096         estimate D2E/DX2                !
 ! A118  A(52,51,69)           120.0621         estimate D2E/DX2                !
 ! A119  A(47,52,51)           120.7579         estimate D2E/DX2                !
 ! A120  A(47,52,70)           119.7613         estimate D2E/DX2                !
 ! A121  A(51,52,70)           119.4624         estimate D2E/DX2                !
 ! A122  A(40,53,54)           118.9014         estimate D2E/DX2                !
 ! A123  A(40,53,58)           122.8418         estimate D2E/DX2                !
 ! A124  A(54,53,58)           118.2331         estimate D2E/DX2                !
 ! A125  A(53,54,56)           121.1201         estimate D2E/DX2                !
 ! A126  A(53,54,64)           119.6308         estimate D2E/DX2                !
 ! A127  A(56,54,64)           119.2486         estimate D2E/DX2                !
 ! A128  A(56,55,57)           119.6919         estimate D2E/DX2                !
 ! A129  A(56,55,72)           120.1322         estimate D2E/DX2                !
 ! A130  A(57,55,72)           120.1757         estimate D2E/DX2                !
 ! A131  A(54,56,55)           119.9402         estimate D2E/DX2                !
 ! A132  A(54,56,73)           119.9731         estimate D2E/DX2                !
 ! A133  A(55,56,73)           120.0866         estimate D2E/DX2                !
 ! A134  A(55,57,58)           120.1231         estimate D2E/DX2                !
 ! A135  A(55,57,71)           119.9568         estimate D2E/DX2                !
 ! A136  A(58,57,71)           119.9199         estimate D2E/DX2                !
 ! A137  A(53,58,57)           120.8849         estimate D2E/DX2                !
 ! A138  A(53,58,65)           120.9251         estimate D2E/DX2                !
 ! A139  A(57,58,65)           118.187          estimate D2E/DX2                !
 ! A140  A(1,75,40)             97.9363         estimate D2E/DX2                !
 ! A141  A(1,75,77)             88.4315         estimate D2E/DX2                !
 ! A142  A(40,75,76)            88.4969         estimate D2E/DX2                !
 ! A143  A(76,75,77)            85.1323         estimate D2E/DX2                !
 ! A144  L(1,75,76,77,-1)      173.5638         estimate D2E/DX2                !
 ! A145  L(40,75,77,76,-1)     173.6292         estimate D2E/DX2                !
 ! A146  L(1,75,76,77,-2)      181.6697         estimate D2E/DX2                !
 ! A147  L(40,75,77,76,-2)     179.9905         estimate D2E/DX2                !
 ! D1    D(12,1,2,3)           -72.2469         estimate D2E/DX2                !
 ! D2    D(12,1,2,7)           104.4274         estimate D2E/DX2                !
 ! D3    D(18,1,2,3)            34.793          estimate D2E/DX2                !
 ! D4    D(18,1,2,7)          -148.5327         estimate D2E/DX2                !
 ! D5    D(75,1,2,3)           159.6237         estimate D2E/DX2                !
 ! D6    D(75,1,2,7)           -23.702          estimate D2E/DX2                !
 ! D7    D(2,1,12,13)          175.8904         estimate D2E/DX2                !
 ! D8    D(2,1,12,17)           -3.67           estimate D2E/DX2                !
 ! D9    D(18,1,12,13)          73.4914         estimate D2E/DX2                !
 ! D10   D(18,1,12,17)        -106.069          estimate D2E/DX2                !
 ! D11   D(75,1,12,13)         -55.6867         estimate D2E/DX2                !
 ! D12   D(75,1,12,17)         124.7529         estimate D2E/DX2                !
 ! D13   D(2,1,18,19)           54.0238         estimate D2E/DX2                !
 ! D14   D(2,1,18,23)         -124.556          estimate D2E/DX2                !
 ! D15   D(12,1,18,19)         161.0652         estimate D2E/DX2                !
 ! D16   D(12,1,18,23)         -17.5146         estimate D2E/DX2                !
 ! D17   D(75,1,18,19)         -70.3962         estimate D2E/DX2                !
 ! D18   D(75,1,18,23)         111.024          estimate D2E/DX2                !
 ! D19   D(2,1,75,40)           77.7581         estimate D2E/DX2                !
 ! D20   D(2,1,75,77)         -102.4385         estimate D2E/DX2                !
 ! D21   D(12,1,75,40)         -44.6265         estimate D2E/DX2                !
 ! D22   D(12,1,75,77)         135.177          estimate D2E/DX2                !
 ! D23   D(18,1,75,40)        -167.5156         estimate D2E/DX2                !
 ! D24   D(18,1,75,77)          12.2878         estimate D2E/DX2                !
 ! D25   D(1,2,3,4)            175.9177         estimate D2E/DX2                !
 ! D26   D(1,2,3,24)            -3.3097         estimate D2E/DX2                !
 ! D27   D(7,2,3,4)             -0.733          estimate D2E/DX2                !
 ! D28   D(7,2,3,24)          -179.9604         estimate D2E/DX2                !
 ! D29   D(1,2,7,6)           -171.7015         estimate D2E/DX2                !
 ! D30   D(1,2,7,8)              4.4631         estimate D2E/DX2                !
 ! D31   D(3,2,7,6)              5.1559         estimate D2E/DX2                !
 ! D32   D(3,2,7,8)           -178.6795         estimate D2E/DX2                !
 ! D33   D(2,3,4,5)             -2.3766         estimate D2E/DX2                !
 ! D34   D(2,3,4,26)           179.7137         estimate D2E/DX2                !
 ! D35   D(24,3,4,5)           176.8539         estimate D2E/DX2                !
 ! D36   D(24,3,4,26)           -1.0559         estimate D2E/DX2                !
 ! D37   D(3,4,5,6)              1.1985         estimate D2E/DX2                !
 ! D38   D(3,4,5,25)          -177.4045         estimate D2E/DX2                !
 ! D39   D(26,4,5,6)           179.104          estimate D2E/DX2                !
 ! D40   D(26,4,5,25)            0.501          estimate D2E/DX2                !
 ! D41   D(4,5,6,7)              2.9987         estimate D2E/DX2                !
 ! D42   D(4,5,6,9)           -173.9111         estimate D2E/DX2                !
 ! D43   D(25,5,6,7)          -178.4426         estimate D2E/DX2                !
 ! D44   D(25,5,6,9)             4.6476         estimate D2E/DX2                !
 ! D45   D(5,6,7,2)             -6.2914         estimate D2E/DX2                !
 ! D46   D(5,6,7,8)            177.6061         estimate D2E/DX2                !
 ! D47   D(9,6,7,2)            170.826          estimate D2E/DX2                !
 ! D48   D(9,6,7,8)             -5.2765         estimate D2E/DX2                !
 ! D49   D(5,6,9,10)            23.8824         estimate D2E/DX2                !
 ! D50   D(5,6,9,11)           -95.761          estimate D2E/DX2                !
 ! D51   D(5,6,9,45)           146.0045         estimate D2E/DX2                !
 ! D52   D(7,6,9,10)          -153.0491         estimate D2E/DX2                !
 ! D53   D(7,6,9,11)            87.3075         estimate D2E/DX2                !
 ! D54   D(7,6,9,45)           -30.927          estimate D2E/DX2                !
 ! D55   D(2,7,8,46)          -131.7547         estimate D2E/DX2                !
 ! D56   D(6,7,8,46)            44.5182         estimate D2E/DX2                !
 ! D57   D(7,8,46,41)          134.784          estimate D2E/DX2                !
 ! D58   D(7,8,46,45)          -43.1448         estimate D2E/DX2                !
 ! D59   D(6,9,10,27)           59.9666         estimate D2E/DX2                !
 ! D60   D(6,9,10,28)          -61.0506         estimate D2E/DX2                !
 ! D61   D(6,9,10,62)         -179.0155         estimate D2E/DX2                !
 ! D62   D(11,9,10,27)        -179.9786         estimate D2E/DX2                !
 ! D63   D(11,9,10,28)          59.0042         estimate D2E/DX2                !
 ! D64   D(11,9,10,62)         -58.9606         estimate D2E/DX2                !
 ! D65   D(45,9,10,27)         -59.9193         estimate D2E/DX2                !
 ! D66   D(45,9,10,28)         179.0634         estimate D2E/DX2                !
 ! D67   D(45,9,10,62)          61.0986         estimate D2E/DX2                !
 ! D68   D(6,9,11,29)          -58.5818         estimate D2E/DX2                !
 ! D69   D(6,9,11,30)           61.2494         estimate D2E/DX2                !
 ! D70   D(6,9,11,63)         -178.3963         estimate D2E/DX2                !
 ! D71   D(10,9,11,29)        -179.9844         estimate D2E/DX2                !
 ! D72   D(10,9,11,30)         -60.1532         estimate D2E/DX2                !
 ! D73   D(10,9,11,63)          60.2011         estimate D2E/DX2                !
 ! D74   D(45,9,11,29)          58.6138         estimate D2E/DX2                !
 ! D75   D(45,9,11,30)         178.445          estimate D2E/DX2                !
 ! D76   D(45,9,11,63)         -61.2007         estimate D2E/DX2                !
 ! D77   D(6,9,45,44)         -146.0104         estimate D2E/DX2                !
 ! D78   D(6,9,45,46)           32.1285         estimate D2E/DX2                !
 ! D79   D(10,9,45,44)         -23.8864         estimate D2E/DX2                !
 ! D80   D(10,9,45,46)         154.2526         estimate D2E/DX2                !
 ! D81   D(11,9,45,44)          95.7583         estimate D2E/DX2                !
 ! D82   D(11,9,45,46)         -86.1027         estimate D2E/DX2                !
 ! D83   D(1,12,13,14)        -177.8166         estimate D2E/DX2                !
 ! D84   D(1,12,13,35)           1.0968         estimate D2E/DX2                !
 ! D85   D(17,12,13,14)          1.7583         estimate D2E/DX2                !
 ! D86   D(17,12,13,35)       -179.3284         estimate D2E/DX2                !
 ! D87   D(1,12,17,16)         178.2877         estimate D2E/DX2                !
 ! D88   D(1,12,17,39)          -1.4541         estimate D2E/DX2                !
 ! D89   D(13,12,17,16)         -1.2764         estimate D2E/DX2                !
 ! D90   D(13,12,17,39)        178.9818         estimate D2E/DX2                !
 ! D91   D(12,13,14,15)         -1.0542         estimate D2E/DX2                !
 ! D92   D(12,13,14,36)        179.6728         estimate D2E/DX2                !
 ! D93   D(35,13,14,15)       -179.9735         estimate D2E/DX2                !
 ! D94   D(35,13,14,36)          0.7535         estimate D2E/DX2                !
 ! D95   D(13,14,15,16)         -0.1648         estimate D2E/DX2                !
 ! D96   D(13,14,15,37)       -179.4363         estimate D2E/DX2                !
 ! D97   D(36,14,15,16)        179.1085         estimate D2E/DX2                !
 ! D98   D(36,14,15,37)         -0.163          estimate D2E/DX2                !
 ! D99   D(14,15,16,17)          0.6408         estimate D2E/DX2                !
 ! D100  D(14,15,16,38)       -179.4289         estimate D2E/DX2                !
 ! D101  D(37,15,16,17)        179.912          estimate D2E/DX2                !
 ! D102  D(37,15,16,38)         -0.1578         estimate D2E/DX2                !
 ! D103  D(15,16,17,12)          0.0907         estimate D2E/DX2                !
 ! D104  D(15,16,17,39)        179.8377         estimate D2E/DX2                !
 ! D105  D(38,16,17,12)       -179.8396         estimate D2E/DX2                !
 ! D106  D(38,16,17,39)         -0.0926         estimate D2E/DX2                !
 ! D107  D(1,18,19,21)        -179.3401         estimate D2E/DX2                !
 ! D108  D(1,18,19,31)           0.938          estimate D2E/DX2                !
 ! D109  D(23,18,19,21)         -0.6972         estimate D2E/DX2                !
 ! D110  D(23,18,19,31)        179.5809         estimate D2E/DX2                !
 ! D111  D(1,18,23,22)         179.221          estimate D2E/DX2                !
 ! D112  D(1,18,23,34)          -0.1629         estimate D2E/DX2                !
 ! D113  D(19,18,23,22)          0.6266         estimate D2E/DX2                !
 ! D114  D(19,18,23,34)       -178.7572         estimate D2E/DX2                !
 ! D115  D(18,19,21,20)          0.3231         estimate D2E/DX2                !
 ! D116  D(18,19,21,74)       -179.5698         estimate D2E/DX2                !
 ! D117  D(31,19,21,20)       -179.9539         estimate D2E/DX2                !
 ! D118  D(31,19,21,74)          0.1532         estimate D2E/DX2                !
 ! D119  D(22,20,21,19)          0.1382         estimate D2E/DX2                !
 ! D120  D(22,20,21,74)       -179.969          estimate D2E/DX2                !
 ! D121  D(32,20,21,19)       -179.9566         estimate D2E/DX2                !
 ! D122  D(32,20,21,74)         -0.0638         estimate D2E/DX2                !
 ! D123  D(21,20,22,23)         -0.2066         estimate D2E/DX2                !
 ! D124  D(21,20,22,33)        179.6501         estimate D2E/DX2                !
 ! D125  D(32,20,22,23)        179.8882         estimate D2E/DX2                !
 ! D126  D(32,20,22,33)         -0.255          estimate D2E/DX2                !
 ! D127  D(20,22,23,18)         -0.1839         estimate D2E/DX2                !
 ! D128  D(20,22,23,34)        179.2164         estimate D2E/DX2                !
 ! D129  D(33,22,23,18)        179.9593         estimate D2E/DX2                !
 ! D130  D(33,22,23,34)         -0.6404         estimate D2E/DX2                !
 ! D131  D(47,40,41,42)         58.9876         estimate D2E/DX2                !
 ! D132  D(47,40,41,46)       -122.3573         estimate D2E/DX2                !
 ! D133  D(53,40,41,42)        -46.6921         estimate D2E/DX2                !
 ! D134  D(53,40,41,46)        131.963          estimate D2E/DX2                !
 ! D135  D(75,40,41,42)       -168.3332         estimate D2E/DX2                !
 ! D136  D(75,40,41,46)         10.3219         estimate D2E/DX2                !
 ! D137  D(41,40,47,48)          7.5698         estimate D2E/DX2                !
 ! D138  D(41,40,47,52)       -171.7389         estimate D2E/DX2                !
 ! D139  D(53,40,47,48)        106.4823         estimate D2E/DX2                !
 ! D140  D(53,40,47,52)        -72.8264         estimate D2E/DX2                !
 ! D141  D(75,40,47,48)       -125.9678         estimate D2E/DX2                !
 ! D142  D(75,40,47,52)         54.7235         estimate D2E/DX2                !
 ! D143  D(41,40,53,54)        -59.5785         estimate D2E/DX2                !
 ! D144  D(41,40,53,58)        118.6199         estimate D2E/DX2                !
 ! D145  D(47,40,53,54)       -168.7653         estimate D2E/DX2                !
 ! D146  D(47,40,53,58)          9.4331         estimate D2E/DX2                !
 ! D147  D(75,40,53,54)         63.5247         estimate D2E/DX2                !
 ! D148  D(75,40,53,58)       -118.2769         estimate D2E/DX2                !
 ! D149  D(41,40,75,1)         -67.9914         estimate D2E/DX2                !
 ! D150  D(41,40,75,76)        113.6949         estimate D2E/DX2                !
 ! D151  D(47,40,75,1)          60.8845         estimate D2E/DX2                !
 ! D152  D(47,40,75,76)       -117.4292         estimate D2E/DX2                !
 ! D153  D(53,40,75,1)        -177.768          estimate D2E/DX2                !
 ! D154  D(53,40,75,76)          3.9183         estimate D2E/DX2                !
 ! D155  D(40,41,42,43)        179.0865         estimate D2E/DX2                !
 ! D156  D(40,41,42,59)         -0.3184         estimate D2E/DX2                !
 ! D157  D(46,41,42,43)          0.428          estimate D2E/DX2                !
 ! D158  D(46,41,42,59)       -178.9769         estimate D2E/DX2                !
 ! D159  D(40,41,46,8)           0.791          estimate D2E/DX2                !
 ! D160  D(40,41,46,45)        178.6518         estimate D2E/DX2                !
 ! D161  D(42,41,46,8)         179.5114         estimate D2E/DX2                !
 ! D162  D(42,41,46,45)         -2.6278         estimate D2E/DX2                !
 ! D163  D(41,42,43,44)          0.9978         estimate D2E/DX2                !
 ! D164  D(41,42,43,61)       -179.5357         estimate D2E/DX2                !
 ! D165  D(59,42,43,44)       -179.5977         estimate D2E/DX2                !
 ! D166  D(59,42,43,61)         -0.1312         estimate D2E/DX2                !
 ! D167  D(42,43,44,45)         -0.2986         estimate D2E/DX2                !
 ! D168  D(42,43,44,60)        178.9708         estimate D2E/DX2                !
 ! D169  D(61,43,44,45)       -179.764          estimate D2E/DX2                !
 ! D170  D(61,43,44,60)         -0.4946         estimate D2E/DX2                !
 ! D171  D(43,44,45,9)         176.3555         estimate D2E/DX2                !
 ! D172  D(43,44,45,46)         -1.7737         estimate D2E/DX2                !
 ! D173  D(60,44,45,9)          -2.8904         estimate D2E/DX2                !
 ! D174  D(60,44,45,46)        178.9804         estimate D2E/DX2                !
 ! D175  D(9,45,46,8)            2.8775         estimate D2E/DX2                !
 ! D176  D(9,45,46,41)        -174.9507         estimate D2E/DX2                !
 ! D177  D(44,45,46,8)        -178.8696         estimate D2E/DX2                !
 ! D178  D(44,45,46,41)          3.3022         estimate D2E/DX2                !
 ! D179  D(40,47,48,49)       -177.8283         estimate D2E/DX2                !
 ! D180  D(40,47,48,66)          2.1549         estimate D2E/DX2                !
 ! D181  D(52,47,48,49)          1.4837         estimate D2E/DX2                !
 ! D182  D(52,47,48,66)       -178.5331         estimate D2E/DX2                !
 ! D183  D(40,47,52,51)        177.6579         estimate D2E/DX2                !
 ! D184  D(40,47,52,70)         -0.7706         estimate D2E/DX2                !
 ! D185  D(48,47,52,51)         -1.6723         estimate D2E/DX2                !
 ! D186  D(48,47,52,70)        179.8992         estimate D2E/DX2                !
 ! D187  D(47,48,49,50)         -0.3699         estimate D2E/DX2                !
 ! D188  D(47,48,49,67)        179.9434         estimate D2E/DX2                !
 ! D189  D(66,48,49,50)        179.6467         estimate D2E/DX2                !
 ! D190  D(66,48,49,67)         -0.0401         estimate D2E/DX2                !
 ! D191  D(48,49,50,51)         -0.5838         estimate D2E/DX2                !
 ! D192  D(48,49,50,68)       -179.9582         estimate D2E/DX2                !
 ! D193  D(67,49,50,51)        179.1024         estimate D2E/DX2                !
 ! D194  D(67,49,50,68)         -0.272          estimate D2E/DX2                !
 ! D195  D(49,50,51,52)          0.3985         estimate D2E/DX2                !
 ! D196  D(49,50,51,69)       -179.6467         estimate D2E/DX2                !
 ! D197  D(68,50,51,52)        179.7723         estimate D2E/DX2                !
 ! D198  D(68,50,51,69)         -0.2729         estimate D2E/DX2                !
 ! D199  D(50,51,52,47)          0.7437         estimate D2E/DX2                !
 ! D200  D(50,51,52,70)        179.1769         estimate D2E/DX2                !
 ! D201  D(69,51,52,47)       -179.2111         estimate D2E/DX2                !
 ! D202  D(69,51,52,70)         -0.7779         estimate D2E/DX2                !
 ! D203  D(40,53,54,56)        179.2028         estimate D2E/DX2                !
 ! D204  D(40,53,54,64)         -1.0583         estimate D2E/DX2                !
 ! D205  D(58,53,54,56)          0.9209         estimate D2E/DX2                !
 ! D206  D(58,53,54,64)       -179.3403         estimate D2E/DX2                !
 ! D207  D(40,53,58,57)       -179.0725         estimate D2E/DX2                !
 ! D208  D(40,53,58,65)          0.276          estimate D2E/DX2                !
 ! D209  D(54,53,58,57)         -0.8627         estimate D2E/DX2                !
 ! D210  D(54,53,58,65)        178.4857         estimate D2E/DX2                !
 ! D211  D(53,54,56,55)         -0.3969         estimate D2E/DX2                !
 ! D212  D(53,54,56,73)        179.5451         estimate D2E/DX2                !
 ! D213  D(64,54,56,55)        179.8632         estimate D2E/DX2                !
 ! D214  D(64,54,56,73)         -0.1947         estimate D2E/DX2                !
 ! D215  D(57,55,56,54)         -0.2064         estimate D2E/DX2                !
 ! D216  D(57,55,56,73)        179.8516         estimate D2E/DX2                !
 ! D217  D(72,55,56,54)        179.9578         estimate D2E/DX2                !
 ! D218  D(72,55,56,73)          0.0158         estimate D2E/DX2                !
 ! D219  D(56,55,57,58)          0.2621         estimate D2E/DX2                !
 ! D220  D(56,55,57,71)       -179.5865         estimate D2E/DX2                !
 ! D221  D(72,55,57,58)       -179.9022         estimate D2E/DX2                !
 ! D222  D(72,55,57,71)          0.2493         estimate D2E/DX2                !
 ! D223  D(55,57,58,53)          0.2832         estimate D2E/DX2                !
 ! D224  D(55,57,58,65)       -179.0826         estimate D2E/DX2                !
 ! D225  D(71,57,58,53)       -179.8682         estimate D2E/DX2                !
 ! D226  D(71,57,58,65)          0.766          estimate D2E/DX2                !
 --------------------------------------------------------------------------------
 Trust Radius=3.00D-01 FncErr=1.00D-07 GrdErr=1.00D-06
 Number of steps in this run=    462 maximum allowed number of steps=    462.
 GradGradGradGradGradGradGradGradGradGradGradGradGradGradGradGradGradGrad

 Stoichiometry    C39H32Cl2OP2Pd
 Framework group  C1[X(C39H32Cl2OP2Pd)]
 Deg. of freedom   225
 Full point group                 C1      NOp   1
 Largest Abelian subgroup         C1      NOp   1
 Largest concise Abelian subgroup C1      NOp   1
                         Standard orientation:                         
 ---------------------------------------------------------------------
 Center     Atomic      Atomic             Coordinates (Angstroms)
 Number     Number       Type             X           Y           Z
 ---------------------------------------------------------------------
      1         15           0       -1.871702   -0.402043   -0.078540
      2          6           0       -2.222233    1.413936    0.245458
      3          6           0       -3.448837    1.899502    0.747161
      4          6           0       -3.603939    3.268643    1.044163
      5          6           0       -2.521156    4.158831    0.890834
      6          6           0       -1.277770    3.683574    0.412456
      7          6           0       -1.179870    2.324101    0.038511
      8          8           0       -0.012109    1.850027   -0.470698
      9          6           0        0.005215    4.538440    0.334781
     10          6           0       -0.040333    5.713977    1.341093
     11          6           0        0.140091    5.117557   -1.084140
     12          6           0       -1.703247   -1.152734    1.632159
     13          6           0       -1.519190   -2.545863    1.764557
     14          6           0       -1.435191   -3.145015    3.036072
     15          6           0       -1.512604   -2.350754    4.194475
     16          6           0       -1.670479   -0.957836    4.076610
     17          6           0       -1.764090   -0.364009    2.803096
     18          6           0       -3.600953   -0.910563   -0.641652
     19          6           0       -4.220153   -0.201089   -1.695401
     20          6           0       -6.214483   -1.590191   -1.524960
     21          6           0       -5.513810   -0.536661   -2.138576
     22          6           0       -5.617601   -2.301050   -0.468309
     23          6           0       -4.322549   -1.961451   -0.030461
     24          1           0       -4.271169    1.219065    0.917351
     25          1           0       -2.661990    5.191683    1.167290
     26          1           0       -4.548937    3.630328    1.423446
     27          1           0       -0.135549    5.354190    2.366283
     28          1           0       -0.871240    6.389682    1.143592
     29          1           0        0.176435    4.326419   -1.834028
     30          1           0       -0.703370    5.762552   -1.331298
     31          1           0       -3.692705    0.611116   -2.174897
     32          1           0       -7.207053   -1.850930   -1.862867
     33          1           0       -6.154153   -3.107614    0.010104
     34          1           0       -3.900681   -2.518469    0.789990
     35          1           0       -1.458852   -3.166584    0.882569
     36          1           0       -1.299521   -4.213155    3.122142
     37          1           0       -1.439207   -2.807721    5.170565
     38          1           0       -1.721161   -0.342713    4.963116
     39          1           0       -1.887539    0.706525    2.739894
     40         15           0        1.797205   -0.471378   -0.077736
     41          6           0        2.072747    1.297067    0.495467
     42          6           0        3.231828    1.711940    1.184858
     43          6           0        3.388379    3.058080    1.571971
     44          6           0        2.379518    4.003139    1.293868
     45          6           0        1.203409    3.604262    0.616640
     46          6           0        1.095708    2.256176    0.202054
     47          6           0        1.852547   -1.570868    1.436870
     48          6           0        1.912685   -1.038711    2.742883
     49          6           0        1.999186   -1.890624    3.861142
     50          6           0        2.018627   -3.286812    3.684494
     51          6           0        1.938973   -3.828912    2.388286
     52          6           0        1.848676   -2.973416    1.273209
     53          6           0        3.525361   -0.646899   -0.816920
     54          6           0        3.920673    0.236420   -1.846614
     55          6           0        6.119871   -0.806367   -1.961677
     56          6           0        5.204444    0.158058   -2.419662
     57          6           0        5.747378   -1.685406   -0.928776
     58          6           0        4.461362   -1.603225   -0.359985
     59          1           0        4.008626    0.994337    1.408803
     60          1           0        2.525723    5.020706    1.619573
     61          1           0        4.284289    3.364372    2.092832
     62          1           0        0.852198    6.335489    1.284408
     63          1           0        1.051890    5.706464   -1.187209
     64          1           0        3.227018    0.983094   -2.205493
     65          1           0        4.214028   -2.282276    0.440020
     66          1           0        1.893230    0.029365    2.898584
     67          1           0        2.045490   -1.470713    4.855224
     68          1           0        2.084302   -3.939789    4.542553
     69          1           0        1.947851   -4.900205    2.249167
     70          1           0        1.801364   -3.397467    0.280442
     71          1           0        6.449576   -2.423551   -0.569065
     72          1           0        7.105460   -0.869687   -2.399622
     73          1           0        5.484650    0.837943   -3.210950
     74          1           0       -5.965860    0.014370   -2.950494
     75         46           0       -0.046426   -0.876307   -1.613147
     76         17           0        1.521498   -1.446038   -3.248454
     77         17           0       -1.636342   -1.327320   -3.263533
 ---------------------------------------------------------------------
 Rotational constants (GHZ):      0.0748665      0.0589036      0.0528575
 General basis read from cards:  (6D, 7F)
 ======================================================================================================
                                       Pseudopotential Parameters
 ======================================================================================================
  Center     Atomic      Valence      Angular      Power
  Number     Number     Electrons     Momentum     of R      Exponent        Coefficient   SO-Coeffient
 ======================================================================================================
    1         15
                                   No pseudopotential on this center.
    2          6
                                   No pseudopotential on this center.
    3          6
                                   No pseudopotential on this center.
    4          6
                                   No pseudopotential on this center.
    5          6
                                   No pseudopotential on this center.
    6          6
                                   No pseudopotential on this center.
    7          6
                                   No pseudopotential on this center.
    8          8
                                   No pseudopotential on this center.
    9          6
                                   No pseudopotential on this center.
   10          6
                                   No pseudopotential on this center.
   11          6
                                   No pseudopotential on this center.
   12          6
                                   No pseudopotential on this center.
   13          6
                                   No pseudopotential on this center.
   14          6
                                   No pseudopotential on this center.
   15          6
                                   No pseudopotential on this center.
   16          6
                                   No pseudopotential on this center.
   17          6
                                   No pseudopotential on this center.
   18          6
                                   No pseudopotential on this center.
   19          6
                                   No pseudopotential on this center.
   20          6
                                   No pseudopotential on this center.
   21          6
                                   No pseudopotential on this center.
   22          6
                                   No pseudopotential on this center.
   23          6
                                   No pseudopotential on this center.
   24          1
                                   No pseudopotential on this center.
   25          1
                                   No pseudopotential on this center.
   26          1
                                   No pseudopotential on this center.
   27          1
                                   No pseudopotential on this center.
   28          1
                                   No pseudopotential on this center.
   29          1
                                   No pseudopotential on this center.
   30          1
                                   No pseudopotential on this center.
   31          1
                                   No pseudopotential on this center.
   32          1
                                   No pseudopotential on this center.
   33          1
                                   No pseudopotential on this center.
   34          1
                                   No pseudopotential on this center.
   35          1
                                   No pseudopotential on this center.
   36          1
                                   No pseudopotential on this center.
   37          1
                                   No pseudopotential on this center.
   38          1
                                   No pseudopotential on this center.
   39          1
                                   No pseudopotential on this center.
   40         15
                                   No pseudopotential on this center.
   41          6
                                   No pseudopotential on this center.
   42          6
                                   No pseudopotential on this center.
   43          6
                                   No pseudopotential on this center.
   44          6
                                   No pseudopotential on this center.
   45          6
                                   No pseudopotential on this center.
   46          6
                                   No pseudopotential on this center.
   47          6
                                   No pseudopotential on this center.
   48          6
                                   No pseudopotential on this center.
   49          6
                                   No pseudopotential on this center.
   50          6
                                   No pseudopotential on this center.
   51          6
                                   No pseudopotential on this center.
   52          6
                                   No pseudopotential on this center.
   53          6
                                   No pseudopotential on this center.
   54          6
                                   No pseudopotential on this center.
   55          6
                                   No pseudopotential on this center.
   56          6
                                   No pseudopotential on this center.
   57          6
                                   No pseudopotential on this center.
   58          6
                                   No pseudopotential on this center.
   59          1
                                   No pseudopotential on this center.
   60          1
                                   No pseudopotential on this center.
   61          1
                                   No pseudopotential on this center.
   62          1
                                   No pseudopotential on this center.
   63          1
                                   No pseudopotential on this center.
   64          1
                                   No pseudopotential on this center.
   65          1
                                   No pseudopotential on this center.
   66          1
                                   No pseudopotential on this center.
   67          1
                                   No pseudopotential on this center.
   68          1
                                   No pseudopotential on this center.
   69          1
                                   No pseudopotential on this center.
   70          1
                                   No pseudopotential on this center.
   71          1
                                   No pseudopotential on this center.
   72          1
                                   No pseudopotential on this center.
   73          1
                                   No pseudopotential on this center.
   74          1
                                   No pseudopotential on this center.
   75         46           18
                                      F and up 
                                                     0      598.3336444       -0.05631770    0.00000000
                                                     1      162.4298290      -20.12880360    0.00000000
                                                     2       51.5714771     -105.81979230    0.00000000
                                                     2       16.4888260      -42.57333450    0.00000000
                                                     2        5.8287656       -3.61650860    0.00000000
                                      S - F
                                                     0       73.3806304        3.00036510    0.00000000
                                                     1       14.7550438       32.43500930    0.00000000
                                                     2       17.8350204      459.08303830    0.00000000
                                                     2       12.7111477     -868.06290290    0.00000000
                                                     2        9.3292063      514.47260980    0.00000000
                                      P - F
                                                     0       55.6689877        4.95930990    0.00000000
                                                     1       64.2337771       21.17110290    0.00000000
                                                     2       17.6254952      605.05600920    0.00000000
                                                     2       11.9058155     -726.96418460    0.00000000
                                                     2        8.5100832      396.32748830    0.00000000
                                      D - F
                                                     0       49.9994728        3.05087450    0.00000000
                                                     1       39.7477547       22.25065800    0.00000000
                                                     2       11.4321366      674.83576980    0.00000000
                                                     2        9.1790080    -1040.85540480    0.00000000
                                                     2        7.5624429      505.93751470    0.00000000
   76         17
                                   No pseudopotential on this center.
   77         17
                                   No pseudopotential on this center.
 ======================================================================================================
 There are   764 symmetry adapted cartesian basis functions of A   symmetry.
 There are   764 symmetry adapted basis functions of A   symmetry.
   764 basis functions,  1505 primitive gaussians,   764 cartesian basis functions
   178 alpha electrons      178 beta electrons
       nuclear repulsion energy      7045.1597557631 Hartrees.
 NAtoms=   77 NActive=   77 NUniq=   77 SFac= 1.00D+00 NAtFMM=   60 NAOKFM=T Big=T
 Integral buffers will be    131072 words long.
 Raffenetti 2 integral format.
 Two-electron integral symmetry is turned on.
 Nuclear repulsion after empirical dispersion term =     7045.0064918816 Hartrees.
 Standard density basis: Auto (5D, 7F)
  3340 Density fitting functions
 There are  3340 symmetry adapted density basis functions of A   symmetry.
 One-electron integrals computed using PRISM.
   1 Symmetry operations used in ECPInt.
 ECPInt:  NShTT=   31878 NPrTT=  214492 LenC2=   24509 LenP2D=   82378.
 LDataN:  DoStor=T MaxTD1= 5 Len=  102
 NBasis=   764 RedAO= T EigKep=  3.85D-04  NBF=   764
 NBsUse=   764 1.00D-06 EigRej= -1.00D+00 NBFU=   764
 NBasis=      764 NBas6D=      764 NTT=      292230   NTT6D=   292230
 NDBShl=      660 NDBF=       3340 NDBF6D=     3940  NNucDB=        0
 IDenFi=        2 ISolve=        0 FullAP=F BlkAPC=T NucTyp=        0
 TolInv= 1.00D-06 TolIt=  1.00D-10 IR12=0.
 FoFCou: FMM=F IPFlag=           0 FMFlag=           0 FMFlg1=           0
         NFxFlg=           0 DoJE=F BraDBF=T KetDBF=T FulRan=T
         wScrn=  0.000000 ICntrl=     600 IOpCl=  3 I1Cent=           6 NGrid=           0
         NMat0=    1 NMatS0=   3940 NMatT0=    0 NMatD0=    1 NMtDS0=    0 NMtDT0=    0
 Petite list used in FoFCou.
 DBF EigKep=  1.29D-06 EigRej= -1.00D+00
 NDBF=   3340  NBFD=  3340
 NRank=  3340 NBFDU=  3340
 S*AI*S=  12.5883607261    
 Defaulting to unpruned grid for atomic number  46.
 ExpMin= 2.62D-02 ExpMax= 2.52D+04 ExpMxC= 3.78D+03 IAcc=3 IRadAn=         5 AccDes= 0.00D+00
 Harris functional with IExCor= 1009 and IRadAn=       5 diagonalized for initial guess.
 HarFok:  IExCor= 1009 AccDes= 0.00D+00 IRadAn=         5 IDoV= 1 UseB2=F ITyADJ=14
 ICtDFT=  3500011 ScaDFX=  1.000000  1.000000  1.000000  1.000000
 Defaulting to unpruned grid for atomic number  46.
 Defaulting to unpruned grid for atomic number  46.
 Defaulting to unpruned grid for atomic number  46.
 Defaulting to unpruned grid for atomic number  46.
 Defaulting to unpruned grid for atomic number  46.
 Defaulting to unpruned grid for atomic number  46.
 Defaulting to unpruned grid for atomic number  46.
 Defaulting to unpruned grid for atomic number  46.
 Defaulting to unpruned grid for atomic number  46.
 Defaulting to unpruned grid for atomic number  46.
 Defaulting to unpruned grid for atomic number  46.
 Defaulting to unpruned grid for atomic number  46.
 Defaulting to unpruned grid for atomic number  46.
 Defaulting to unpruned grid for atomic number  46.
 FoFCou: FMM=F IPFlag=           0 FMFlag=      100000 FMFlg1=        2001
         NFxFlg=           0 DoJE=T BraDBF=F KetDBF=T FulRan=T
         wScrn=  0.000000 ICntrl=     500 IOpCl=  0 I1Cent=   200000004 NGrid=           0
         NMat0=    1 NMatS0=      1 NMatT0=    0 NMatD0=    1 NMtDS0=    0 NMtDT0=    0
 Petite list used in FoFCou.
 Requested convergence on RMS density matrix=1.00D-08 within 500 cycles.
 Requested convergence on MAX density matrix=1.00D-06.
 Requested convergence on             energy=1.00D-06.
 No special actions if energy rises.
 FoFCou: FMM=F IPFlag=           0 FMFlag=      100000 FMFlg1=        2001
         NFxFlg=           0 DoJE=T BraDBF=T KetDBF=F FulRan=T
         wScrn=  0.000000 ICntrl=     500 IOpCl=  0 I1Cent=           5 NGrid=           0
         NMat0=    1 NMatS0=      1 NMatT0=    0 NMatD0=    1 NMtDS0=    0 NMtDT0=    0
 Symmetry not used in FoFCou.
 Defaulting to unpruned grid for atomic number  46.
 Defaulting to unpruned grid for atomic number  46.
 Defaulting to unpruned grid for atomic number  46.
 Defaulting to unpruned grid for atomic number  46.
 Defaulting to unpruned grid for atomic number  46.
 Defaulting to unpruned grid for atomic number  46.
 Defaulting to unpruned grid for atomic number  46.
 Defaulting to unpruned grid for atomic number  46.
 Defaulting to unpruned grid for atomic number  46.
 Defaulting to unpruned grid for atomic number  46.
 Defaulting to unpruned grid for atomic number  46.
 Defaulting to unpruned grid for atomic number  46.
 Defaulting to unpruned grid for atomic number  46.
 Defaulting to unpruned grid for atomic number  46.
 EnCoef did     6 forward-backward iterations
 EnCoef did   100 forward-backward iterations
 Problem detected with inexpensive integrals.
 Switching to full accuracy and repeating last cycle.
 EnCoef did     3 forward-backward iterations
 EnCoef did   100 forward-backward iterations
 EnCoef did   100 forward-backward iterations
 EnCoef did   100 forward-backward iterations
 EnCoef did   100 forward-backward iterations
 EnCoef did   100 forward-backward iterations
 EnCoef did   100 forward-backward iterations
 EnCoef did     9 forward-backward iterations
 EnCoef did     5 forward-backward iterations
 EnCoef did   100 forward-backward iterations
 EnCoef did     6 forward-backward iterations
 EnCoef did     7 forward-backward iterations
 EnCoef did     6 forward-backward iterations
 EnCoef did     1 forward-backward iterations
 EnCoef did     3 forward-backward iterations
 EnCoef did     3 forward-backward iterations
 EnCoef did     1 forward-backward iterations
 Restarting incremental Fock formation.
 SCF Done:  E(RPBE-PBE) =  -3307.99563892     A.U. after   40 cycles
            NFock= 40  Conv=0.39D-08     -V/T= 2.0320

 **********************************************************************

            Population analysis using the SCF density.

 **********************************************************************

 Orbital symmetries:
       Occupied  (A) (A) (A) (A) (A) (A) (A) (A) (A) (A) (A) (A)
                 (A) (A) (A) (A) (A) (A) (A) (A) (A) (A) (A) (A)
                 (A) (A) (A) (A) (A) (A) (A) (A) (A) (A) (A) (A)
                 (A) (A) (A) (A) (A) (A) (A) (A) (A) (A) (A) (A)
                 (A) (A) (A) (A) (A) (A) (A) (A) (A) (A) (A) (A)
                 (A) (A) (A) (A) (A) (A) (A) (A) (A) (A) (A) (A)
                 (A) (A) (A) (A) (A) (A) (A) (A) (A) (A) (A) (A)
                 (A) (A) (A) (A) (A) (A) (A) (A) (A) (A) (A) (A)
                 (A) (A) (A) (A) (A) (A) (A) (A) (A) (A) (A) (A)
                 (A) (A) (A) (A) (A) (A) (A) (A) (A) (A) (A) (A)
                 (A) (A) (A) (A) (A) (A) (A) (A) (A) (A) (A) (A)
                 (A) (A) (A) (A) (A) (A) (A) (A) (A) (A) (A) (A)
                 (A) (A) (A) (A) (A) (A) (A) (A) (A) (A) (A) (A)
                 (A) (A) (A) (A) (A) (A) (A) (A) (A) (A) (A) (A)
                 (A) (A) (A) (A) (A) (A) (A) (A) (A) (A)
       Virtual   (A) (A) (A) (A) (A) (A) (A) (A) (A) (A) (A) (A)
                 (A) (A) (A) (A) (A) (A) (A) (A) (A) (A) (A) (A)
                 (A) (A) (A) (A) (A) (A) (A) (A) (A) (A) (A) (A)
                 (A) (A) (A) (A) (A) (A) (A) (A) (A) (A) (A) (A)
                 (A) (A) (A) (A) (A) (A) (A) (A) (A) (A) (A) (A)
                 (A) (A) (A) (A) (A) (A) (A) (A) (A) (A) (A) (A)
                 (A) (A) (A) (A) (A) (A) (A) (A) (A) (A) (A) (A)
                 (A) (A) (A) (A) (A) (A) (A) (A) (A) (A) (A) (A)
                 (A) (A) (A) (A) (A) (A) (A) (A) (A) (A) (A) (A)
                 (A) (A) (A) (A) (A) (A) (A) (A) (A) (A) (A) (A)
                 (A) (A) (A) (A) (A) (A) (A) (A) (A) (A) (A) (A)
                 (A) (A) (A) (A) (A) (A) (A) (A) (A) (A) (A) (A)
                 (A) (A) (A) (A) (A) (A) (A) (A) (A) (A) (A) (A)
                 (A) (A) (A) (A) (A) (A) (A) (A) (A) (A) (A) (A)
                 (A) (A) (A) (A) (A) (A) (A) (A) (A) (A) (A) (A)
                 (A) (A) (A) (A) (A) (A) (A) (A) (A) (A) (A) (A)
                 (A) (A) (A) (A) (A) (A) (A) (A) (A) (A) (A) (A)
                 (A) (A) (A) (A) (A) (A) (A) (A) (A) (A) (A) (A)
                 (A) (A) (A) (A) (A) (A) (A) (A) (A) (A) (A) (A)
                 (A) (A) (A) (A) (A) (A) (A) (A) (A) (A) (A) (A)
                 (A) (A) (A) (A) (A) (A) (A) (A) (A) (A) (A) (A)
                 (A) (A) (A) (A) (A) (A) (A) (A) (A) (A) (A) (A)
                 (A) (A) (A) (A) (A) (A) (A) (A) (A) (A) (A) (A)
                 (A) (A) (A) (A) (A) (A) (A) (A) (A) (A) (A) (A)
                 (A) (A) (A) (A) (A) (A) (A) (A) (A) (A) (A) (A)
                 (A) (A) (A) (A) (A) (A) (A) (A) (A) (A) (A) (A)
                 (A) (A) (A) (A) (A) (A) (A) (A) (A) (A) (A) (A)
                 (A) (A) (A) (A) (A) (A) (A) (A) (A) (A) (A) (A)
                 (A) (A) (A) (A) (A) (A) (A) (A) (A) (A) (A) (A)
                 (A) (A) (A) (A) (A) (A) (A) (A) (A) (A) (A) (A)
                 (A) (A) (A) (A) (A) (A) (A) (A) (A) (A) (A) (A)
                 (A) (A) (A) (A) (A) (A) (A) (A) (A) (A) (A) (A)
                 (A) (A) (A) (A) (A) (A) (A) (A) (A) (A) (A) (A)
                 (A) (A) (A) (A) (A) (A) (A) (A) (A) (A) (A) (A)
                 (A) (A) (A) (A) (A) (A) (A) (A) (A) (A) (A) (A)
                 (A) (A) (A) (A) (A) (A) (A) (A) (A) (A) (A) (A)
                 (A) (A) (A) (A) (A) (A) (A) (A) (A) (A) (A) (A)
                 (A) (A) (A) (A) (A) (A) (A) (A) (A) (A) (A) (A)
                 (A) (A) (A) (A) (A) (A) (A) (A) (A) (A) (A) (A)
                 (A) (A) (A) (A) (A) (A) (A) (A) (A) (A) (A) (A)
                 (A) (A) (A) (A) (A) (A) (A) (A) (A) (A) (A) (A)
                 (A) (A) (A) (A) (A) (A) (A) (A) (A) (A) (A) (A)
                 (A) (A) (A) (A) (A) (A) (A) (A) (A) (A) (A) (A)
                 (A) (A) (A) (A) (A) (A) (A) (A) (A) (A) (A) (A)
                 (A) (A) (A) (A) (A) (A) (A) (A) (A) (A) (A) (A)
                 (A) (A) (A) (A) (A) (A) (A) (A) (A) (A) (A) (A)
                 (A) (A) (A) (A) (A) (A) (A) (A) (A) (A) (A) (A)
                 (A) (A) (A) (A) (A) (A) (A) (A) (A) (A) (A) (A)
                 (A) (A) (A) (A) (A) (A) (A) (A) (A) (A)
 The electronic state is 1-A.
 Alpha  occ. eigenvalues -- -100.58635-100.58525 -76.37608 -76.37552 -18.83574
 Alpha  occ. eigenvalues --   -9.97838  -9.97796  -9.94515  -9.93168  -9.93117
 Alpha  occ. eigenvalues --   -9.93093  -9.93004  -9.92991  -9.92988  -9.92334
 Alpha  occ. eigenvalues --   -9.92327  -9.92257  -9.92210  -9.91771  -9.91758
 Alpha  occ. eigenvalues --   -9.91740  -9.91734  -9.91680  -9.91677  -9.91661
 Alpha  occ. eigenvalues --   -9.91568  -9.91529  -9.91523  -9.91501  -9.91482
 Alpha  occ. eigenvalues --   -9.91453  -9.91419  -9.90248  -9.90198  -9.90047
 Alpha  occ. eigenvalues --   -9.89953  -9.89875  -9.89874  -9.89827  -9.89686
 Alpha  occ. eigenvalues --   -9.89672  -9.89637  -9.89512  -9.89488  -9.08155
 Alpha  occ. eigenvalues --   -9.08045  -6.90548  -6.90438  -6.89742  -6.89653
 Alpha  occ. eigenvalues --   -6.89637  -6.89539  -6.35311  -6.35269  -4.57168
 Alpha  occ. eigenvalues --   -4.57127  -4.57111  -4.57063  -4.56795  -4.56755
 Alpha  occ. eigenvalues --   -3.19197  -1.96083  -1.96030  -1.92002  -1.02838
 Alpha  occ. eigenvalues --   -0.79707  -0.79562  -0.78379  -0.77969  -0.76514
 Alpha  occ. eigenvalues --   -0.76298  -0.75214  -0.71293  -0.70206  -0.69747
 Alpha  occ. eigenvalues --   -0.68279  -0.68270  -0.67902  -0.67752  -0.66705
 Alpha  occ. eigenvalues --   -0.66481  -0.66391  -0.66352  -0.66182  -0.63963
 Alpha  occ. eigenvalues --   -0.63368  -0.62855  -0.60385  -0.59963  -0.58752
 Alpha  occ. eigenvalues --   -0.58176  -0.55483  -0.55346  -0.54576  -0.54383
 Alpha  occ. eigenvalues --   -0.53560  -0.53373  -0.53272  -0.53117  -0.51682
 Alpha  occ. eigenvalues --   -0.51129  -0.50037  -0.50026  -0.46849  -0.46616
 Alpha  occ. eigenvalues --   -0.45847  -0.45122  -0.44907  -0.43687  -0.43591
 Alpha  occ. eigenvalues --   -0.42275  -0.42202  -0.41363  -0.41208  -0.40762
 Alpha  occ. eigenvalues --   -0.40632  -0.40477  -0.39791  -0.39621  -0.39461
 Alpha  occ. eigenvalues --   -0.39122  -0.38974  -0.38151  -0.38035  -0.37875
 Alpha  occ. eigenvalues --   -0.37601  -0.37031  -0.36601  -0.36474  -0.36321
 Alpha  occ. eigenvalues --   -0.36143  -0.35180  -0.35104  -0.35055  -0.34498
 Alpha  occ. eigenvalues --   -0.34095  -0.34072  -0.33667  -0.33177  -0.32614
 Alpha  occ. eigenvalues --   -0.32105  -0.31569  -0.31521  -0.31411  -0.31072
 Alpha  occ. eigenvalues --   -0.30912  -0.30706  -0.30544  -0.30484  -0.30048
 Alpha  occ. eigenvalues --   -0.29540  -0.29164  -0.28966  -0.28841  -0.28538
 Alpha  occ. eigenvalues --   -0.27851  -0.26547  -0.25290  -0.25030  -0.24280
 Alpha  occ. eigenvalues --   -0.24021  -0.23568  -0.23276  -0.23187  -0.23013
 Alpha  occ. eigenvalues --   -0.22591  -0.22252  -0.22044  -0.21528  -0.21293
 Alpha  occ. eigenvalues --   -0.21025  -0.20731  -0.20353  -0.18216  -0.17534
 Alpha  occ. eigenvalues --   -0.17256  -0.16625  -0.16193
 Alpha virt. eigenvalues --   -0.09479  -0.07214  -0.05987  -0.05879  -0.05347
 Alpha virt. eigenvalues --   -0.04931  -0.04388  -0.03962  -0.03779  -0.03480
 Alpha virt. eigenvalues --   -0.03085  -0.02526  -0.02188  -0.00596   0.01549
 Alpha virt. eigenvalues --    0.02047   0.03229   0.03998   0.04928   0.05658
 Alpha virt. eigenvalues --    0.05731   0.05891   0.06568   0.07762   0.08018
 Alpha virt. eigenvalues --    0.08265   0.08344   0.08593   0.08944   0.09336
 Alpha virt. eigenvalues --    0.09460   0.09983   0.10599   0.10668   0.10862
 Alpha virt. eigenvalues --    0.11214   0.11441   0.11840   0.11955   0.12164
 Alpha virt. eigenvalues --    0.12414   0.12794   0.13147   0.13306   0.13590
 Alpha virt. eigenvalues --    0.13686   0.14194   0.14416   0.14770   0.14923
 Alpha virt. eigenvalues --    0.15056   0.15570   0.15590   0.16110   0.16281
 Alpha virt. eigenvalues --    0.16824   0.17001   0.17154   0.17274   0.17407
 Alpha virt. eigenvalues --    0.17627   0.18224   0.19059   0.19279   0.19746
 Alpha virt. eigenvalues --    0.19984   0.20426   0.21450   0.22166   0.22616
 Alpha virt. eigenvalues --    0.23038   0.24365   0.24561   0.24667   0.25045
 Alpha virt. eigenvalues --    0.25378   0.25671   0.25920   0.26032   0.26355
 Alpha virt. eigenvalues --    0.26766   0.27419   0.27599   0.27643   0.27780
 Alpha virt. eigenvalues --    0.28322   0.28492   0.28553   0.28849   0.30141
 Alpha virt. eigenvalues --    0.30591   0.31202   0.31613   0.31774   0.33274
 Alpha virt. eigenvalues --    0.33959   0.35759   0.35940   0.37122   0.37843
 Alpha virt. eigenvalues --    0.38646   0.39590   0.40568   0.41387   0.41827
 Alpha virt. eigenvalues --    0.42748   0.43986   0.44224   0.44442   0.45295
 Alpha virt. eigenvalues --    0.45625   0.45912   0.46165   0.46636   0.46825
 Alpha virt. eigenvalues --    0.47121   0.47345   0.47482   0.47733   0.48202
 Alpha virt. eigenvalues --    0.48519   0.48737   0.48990   0.49214   0.49650
 Alpha virt. eigenvalues --    0.49896   0.50246   0.50394   0.50462   0.50807
 Alpha virt. eigenvalues --    0.50940   0.51085   0.51257   0.51619   0.51815
 Alpha virt. eigenvalues --    0.52236   0.52437   0.52511   0.52753   0.53023
 Alpha virt. eigenvalues --    0.53226   0.53562   0.53723   0.53938   0.54255
 Alpha virt. eigenvalues --    0.54579   0.54782   0.54903   0.55244   0.55380
 Alpha virt. eigenvalues --    0.55470   0.55805   0.56287   0.56303   0.56648
 Alpha virt. eigenvalues --    0.56732   0.57074   0.57241   0.57372   0.57649
 Alpha virt. eigenvalues --    0.57965   0.58271   0.58717   0.58778   0.59178
 Alpha virt. eigenvalues --    0.59259   0.59440   0.59684   0.60039   0.60654
 Alpha virt. eigenvalues --    0.60986   0.61279   0.62026   0.62197   0.62504
 Alpha virt. eigenvalues --    0.63259   0.63885   0.65014   0.66134   0.66272
 Alpha virt. eigenvalues --    0.66413   0.67106   0.67673   0.67812   0.68542
 Alpha virt. eigenvalues --    0.68792   0.69690   0.69885   0.70412   0.71088
 Alpha virt. eigenvalues --    0.71109   0.72851   0.73233   0.73930   0.74640
 Alpha virt. eigenvalues --    0.75119   0.75359   0.75642   0.76174   0.76757
 Alpha virt. eigenvalues --    0.76935   0.77247   0.77560   0.77769   0.78059
 Alpha virt. eigenvalues --    0.78263   0.78643   0.79193   0.79383   0.79706
 Alpha virt. eigenvalues --    0.79843   0.79971   0.80144   0.80327   0.80813
 Alpha virt. eigenvalues --    0.81206   0.81506   0.81671   0.81805   0.82158
 Alpha virt. eigenvalues --    0.82334   0.82710   0.83026   0.83289   0.83465
 Alpha virt. eigenvalues --    0.83798   0.84236   0.84348   0.84528   0.84936
 Alpha virt. eigenvalues --    0.85154   0.85407   0.85717   0.86073   0.86433
 Alpha virt. eigenvalues --    0.87399   0.87712   0.88340   0.88495   0.88699
 Alpha virt. eigenvalues --    0.88929   0.89272   0.89507   0.90122   0.90463
 Alpha virt. eigenvalues --    0.90610   0.90988   0.91183   0.91657   0.91774
 Alpha virt. eigenvalues --    0.92228   0.92383   0.92897   0.93531   0.93715
 Alpha virt. eigenvalues --    0.94009   0.94476   0.94787   0.95233   0.95808
 Alpha virt. eigenvalues --    0.96111   0.96337   0.96711   0.97574   0.97902
 Alpha virt. eigenvalues --    0.98355   0.98467   0.99086   0.99580   0.99818
 Alpha virt. eigenvalues --    1.00216   1.00869   1.01447   1.01862   1.02236
[...]
 0.00026160,0.00109034,0.00058620,-0.00019319,-0.00011004,0.00005614,-0
 .00000671,-0.00000917,-0.00001186,-0.00001576,-0.00000205,-0.00001388,
 -0.00015053,-0.00000303,0.00000822,0.00000918,-0.00000677,0.00000131,0
 .00000797,-0.00003840,-0.00004237,0.00000894,-0.00013595,-0.00001480,0
 .00007360,0.00002305,-0.00002558,0.00006417,-0.00008403,-0.00010261,-0
 .00004124,0.00003757,-0.00001162,-0.00000420,0.00002136,-0.00003647,-0
 .00002961,-0.00014181,-0.00065539,0.00008306,0.00012411,-0.00000713,0.
 00005033,0.00003545,0.00000014,0.00004249,0.00006655,0.00000870,-0.000
 00487,-0.00006325,0.00010502,-0.00011409,-0.03343203,-0.04703917,0.144
 99601,0.00018811,0.00370464,0.00476200,-0.00336430,-0.00077155,-0.0001
 3765,0.00070045,-0.00012295,0.00131231,-0.00016818,0.00036631,0.000083
 05,-0.00018354,0.00004235,0.00013141,0.00012156,0.00012414,-0.00026221
 ,-0.00121843,0.00057509,-0.00012815,0.00155796,-0.00120467,0.00071140,
 -0.00018040,0.00010659,-0.00011054,0.00012005,-0.00004431,0.00002636,0
 .00006632,-0.00010605,0.00006810,-0.00094052,0.00047889,0.00034417,0.0
 0002502,0.00008895,0.00004761,0.00007792,-0.00010801,0.00020081,-0.000
 02440,-0.00011326,-0.00006375,0.00014357,-0.00005802,0.00013363,-0.000
 10404,-0.00047091,-0.00033175,-0.00052384,-0.00060588,0.00030637,0.000
 05497,-0.00029084,-0.00014255,-0.00004502,0.00006169,-0.00001330,-0.00
 010213,-0.00007003,-0.00013253,0.00000891,-0.00000901,-0.00013315,-0.0
 0004648,0.00062375,0.00002584,-0.00001594,-0.00011553,-0.00006298,-0.0
 0002768,-0.00003116,0.00004522,-0.00004703,0.00005553,0.00018049,-0.00
 001282,0.00002750,-0.00002644,-0.00001513,-0.00001884,-0.00004679,-0.0
 0006895,-0.00000964,-0.00003228,-0.00002310,-0.00002942,-0.00002046,0.
 00000491,-0.00007164,0.00010715,-0.00005238,0.00003097,-0.00000382,-0.
 00007199,0.00000975,-0.00006302,0.00001463,-0.00002732,0.00006101,-0.0
 0009114,0.00010693,0.00004366,-0.00004418,-0.00006420,-0.00004419,-0.0
 0007148,-0.00003915,-0.00001019,-0.00005487,-0.00007684,0.00003852,-0.
 00004094,0.00008819,-0.00004615,-0.00264872,0.00055942,0.00302117,0.00
 063974,-0.00064419,0.00018110,0.00004475,0.00013311,0.00002869,0.00011
 064,-0.00013839,0.00005553,-0.00000814,0.00003972,-0.00010252,-0.00002
 026,-0.00012863,0.00030251,-0.00063339,0.00116234,-0.00103595,0.000333
 19,0.00002221,-0.00041127,0.00014101,0.00009303,0.00011185,0.00003847,
 -0.00005118,-0.00016106,-0.00005031,-0.00003641,0.00003847,-0.00012424
 ,0.00006155,0.00022042,0.00050776,-0.00128886,0.00023593,-0.00096460,0
 .00106802,-0.00243097,-0.00099907,-0.00028585,-0.00216539,0.00006122,0
 .00054203,0.00021817,0.00097911,-0.00007967,-0.00055917,-0.00048991,-0
 .00038536,0.00006990,0.00106118,-0.00020909,-0.00065664,-0.00004740,-0
 .00014279,0.00007944,-0.00000051,-0.00000371,0.00001170,-0.00000659,-0
 .00002816,0.00002347,0.00003238,-0.00001326,0.00007171,0.00007198,0.00
 003421,0.00005990,-0.00043502,0.00024239,0.00011106,-0.00012951,0.0000
 4127,0.00004632,-0.00004685,0.00003514,-0.00005348,-0.00002401,0.00005
 713,-0.00002761,0.00000335,-0.00001898,0.00001880,-0.00003220,-0.00003
 295,-0.00003144,-0.00106150,-0.00090950,0.00046901,0.00004462,0.000033
 24,0.00003921,-0.00002489,0.00002152,0.00003197,0.00009253,-0.00000364
 ,0.00010737,-0.00003126,0.00006699,-0.00001896,-0.04845050,0.00872191,
 0.02668314,0.06006551,0.00110096,0.00355603,-0.00032585,0.00016198,-0.
 00005725,0.00006151,-0.00014686,0.00008911,-0.00015208,0.00000566,-0.0
 0001559,-0.00005758,0.00004914,-0.00001509,-0.00001851,-0.00000925,0.0
 0004150,0.00007217,0.00036851,-0.00014412,0.00001611,-0.00049218,0.000
 42823,-0.00018091,0.00006348,-0.00005791,0.00003010,-0.00003663,0.0000
 3718,-0.00000584,-0.00004332,0.00003376,0.00000539,0.00163520,-0.00045
 957,-0.00078933,0.00009845,0.00004126,-0.00024449,-0.00010722,-0.00005
 194,-0.00003939,0.00007176,0.00010102,-0.00007963,-0.00011481,0.000153
 54,-0.00016672,0.00008517,0.00047454,0.00040141,0.00011724,0.00006755,
 -0.00018135,-0.00012316,0.00009196,0.00006913,-0.00004541,-0.00006498,
 -0.00001219,0.00013006,-0.00000549,0.00009354,-0.00001912,0.00002558,0
 .00005181,-0.00004279,-0.00017755,-0.00003980,-0.00002472,0.00000391,0
 .00002399,0.00000234,-0.00001143,-0.00000760,0.00000073,-0.00001361,-0
 .00002522,0.00001094,-0.00000567,0.00000270,-0.00000273,0.00000887,0.0
 0002023,0.00001352,-0.00000777,0.00000188,0.00000900,0.00001953,0.0000
 0831,0.00003500,0.00002464,-0.00002770,0.00002086,-0.00001264,-0.00000
 361,0.00002759,0.00000039,0.00001358,0.00000714,0.00001317,-0.00002973
 ,0.00001603,-0.00015692,-0.00001007,0.00006808,0.00005450,0.00004579,0
 .00005019,0.00002074,0.00000993,0.00003021,0.00007795,-0.00001769,0.00
 007384,-0.00005790,0.00003023,0.00047929,-0.00192569,0.00042530,-0.000
 45049,0.00027785,0.00012765,0.00003898,-0.00008903,0.00003243,-0.00002
 141,0.00010973,0.00002850,0.00002007,-0.00004714,0.00004248,-0.0000214
 7,0.00008864,-0.00013768,0.00039878,-0.00063509,0.00059082,-0.00044331
 ,0.00007221,-0.00110899,-0.00011136,0.00030090,0.00050055,0.00005853,-
 0.00000758,0.00015993,-0.00006489,-0.00019686,-0.00032778,-0.00065696,
 -0.00036373,0.00131695,-0.00040858,-0.00258309,-0.00083902,0.00063128,
 0.00076148,0.00163557,0.00071993,-0.00053402,0.00113114,0.00037589,-0.
 00027559,-0.00002123,-0.00051725,0.00023982,-0.00034499,-0.00017762,0.
 00051906,0.00000873,-0.00038887,-0.00013571,0.00088007,-0.00005031,0.0
 0003604,-0.00000111,-0.00000523,-0.00000178,0.00000240,0.00000534,0.00
 000427,0.00000083,-0.00000949,-0.00000271,-0.00002220,-0.00001791,-0.0
 0001151,-0.00001814,-0.00009148,0.00032720,0.00015111,-0.00002123,0.00
 012619,-0.00009721,-0.00011495,-0.00006584,0.00010095,0.00001099,0.000
 00383,0.00006570,-0.00007769,-0.00017004,0.00011265,0.00006945,0.00006
 079,-0.00005183,-0.00046106,-0.00074430,0.00085857,-0.00002891,-0.0000
 0694,-0.00006001,-0.00001495,0.00002243,0.00003406,0.00006431,0.000031
 23,0.00001302,0.00000559,-0.00001789,0.00001159,0.00712511,-0.01241931
 ,-0.00245403,-0.01491330,0.01636826,0.00052996,-0.00128385,0.00172125,
 0.00065028,0.00023051,-0.00005068,-0.00026470,0.00017481,-0.00030904,0
 .00002725,-0.00009555,-0.00005402,0.00006062,-0.00001032,-0.00002252,-
 0.00003867,-0.00003599,0.00003787,0.00043075,-0.00019712,0.00009021,-0
 .00032497,0.00030129,0.00003683,0.00005716,-0.00001026,0.00002001,-0.0
 0004277,-0.00000016,-0.00000577,-0.00001419,0.00003051,-0.00001701,0.0
 0079061,-0.00023108,-0.00056715,0.00004385,-0.00000867,-0.00028727,-0.
 00005072,0.00000779,-0.00004075,0.00003680,0.00004613,-0.00001850,-0.0
 0004471,0.00009829,-0.00009564,0.00006420,0.00032722,0.00040467,0.0009
 0981,0.00027660,-0.00043372,0.00015217,0.00033094,0.00005660,0.0000566
 7,-0.00000205,0.00000122,-0.00001866,0.00004457,0.00015380,-0.00000787
 ,-0.00000522,0.00017989,0.00003485,-0.00057696,-0.00007650,-0.00000352
 ,0.00003446,0.00003969,0.00000536,0.00000297,-0.00002040,0.00001173,-0
 .00002683,-0.00004922,0.00000485,-0.00000452,0.00000819,0.00001280,-0.
 00000114,0.00001118,0.00001890,0.00001473,0.00000194,0.00001531,-0.000
 00315,0.00000015,-0.00002125,0.00000521,-0.00006777,0.00004640,-0.0000
 2267,-0.00001502,0.00006116,-0.00001547,0.00005843,0.00002838,0.000029
 10,-0.00007622,0.00005642,-0.00014177,-0.00006943,0.00004456,0.0000695
 6,0.00002433,0.00003407,0.00002101,0.00001015,0.00001967,0.00006322,-0
 .00001626,0.00000645,-0.00005216,0.00002730,0.00068941,0.00081752,-0.0
 0597933,0.00041960,0.00059236,-0.00033538,-0.00005474,0.00006551,-0.00
 016167,-0.00002264,-0.00001796,-0.00007928,-0.00001551,0.00001073,0.00
 002183,-0.00004092,-0.00003527,-0.00005659,0.00006735,-0.00014187,0.00
 019233,-0.00005220,-0.00053990,0.00082056,-0.00008337,-0.00010255,0.00
 010192,-0.00009431,0.00001171,0.00017395,0.00000236,0.00005698,-0.0000
 8000,-0.00002458,-0.00008621,0.00002683,0.00040115,0.00080510,0.000249
 51,-0.00098522,0.00247427,-0.00339087,-0.00258632,-0.00047781,-0.00381
 580,-0.00044555,0.00135796,0.00031221,0.00142852,-0.00032002,-0.000328
 76,-0.00131673,-0.00056034,-0.00000744,0.00148863,-0.00085683,-0.00089
 501,0.00004085,-0.00002174,-0.00004416,0.00001142,0.00000086,-0.000010
 16,-0.00002077,0.00000506,-0.00002122,-0.00001373,0.00000961,-0.000019
 10,-0.00002551,-0.00000397,-0.00001287,-0.00022775,0.00035909,-0.00022
 079,0.00001829,0.00002927,-0.00000246,-0.00004561,-0.00007289,0.000074
 36,0.00000031,-0.00003376,0.00002466,-0.00001039,-0.00002958,0.0000087
 9,0.00003652,0.00010116,0.00001607,0.00055824,0.00124252,-0.00096836,-
 0.00003442,0.00002477,-0.00001568,-0.00004365,0.00004231,-0.00001066,0
 .00003231,-0.00005969,-0.00003508,0.00001778,-0.00004508,0.00002530,0.
 03130763,-0.00449146,-0.03302606,-0.03094126,0.00002615,0.04343934,-0.
 00271382,-0.00077654,0.00124983,0.00079280,-0.00018029,0.00017872,-0.0
 0023238,0.00015146,-0.00016924,0.00015361,-0.00007083,0.00005402,-0.00
 003476,0.00002173,0.00002185,0.00011622,-0.00003296,-0.00010508,-0.000
 54752,0.00024496,0.00026035,0.00043878,-0.00033232,0.00023015,-0.00006
 353,0.00004577,0.00000551,0.00002917,-0.00003052,0.00001100,0.00003547
 ,-0.00003038,0.00001995,0.00005034,-0.00029441,0.00030493,0.00012132,0
 .00008072,-0.00007958,-0.00000191,-0.00000696,0.00008303,0.00001527,-0
 .00002282,-0.00003227,-0.00000027,0.00001691,0.00002269,0.00001623,-0.
 00007778,0.00002970,-0.00372716,-0.00176489,0.00162286,-0.00343731,0.0
 0243769,0.00208361,-0.00015383,-0.00099768,-0.00039806,-0.00000715,-0.
 00007463,0.00125427,-0.00070226,0.00086785,-0.00068466,0.00142000,0.00
 005905,0.00166474,0.00012317,-0.00004156,-0.00008591,0.00000351,-0.000
 00730,0.00000561,0.00000951,-0.00001158,-0.00003025,-0.00000656,0.0000
 1030,-0.00000095,0.00000844,-0.00001595,-0.00001797,-0.00000434,0.0000
 1303,-0.00000169,-0.00000292,-0.00002628,-0.00001189,-0.00165478,0.000
 03124,0.00053204,-0.00002880,-0.00001342,-0.00007700,0.00001156,-0.000
 02147,0.00001846,0.00001659,0.00001768,-0.00011829,-0.00018457,0.00007
 088,-0.00007721,-0.00003318,0.00000978,-0.00002880,-0.00002081,-0.0000
 0073,0.00000220,-0.00002603,0.00000014,-0.00000076,-0.00000509,-0.0000
 0440,-0.00000589,0.00341513,0.00241487,-0.00196101,-0.00069577,0.00091
 090,-0.00020169,0.00016378,-0.00030818,-0.00035815,-0.00003082,0.00010
 287,-0.00006019,-0.00001565,0.00002568,-0.00004239,0.00002303,0.000002
 04,0.00006737,-0.00018415,0.00033801,-0.00008819,-0.00083835,0.0005449
 0,-0.00081643,-0.00004750,0.00021918,0.00025670,0.00017282,-0.00003668
 ,0.00007890,0.00005028,0.00012267,0.00002095,0.00017246,-0.00005717,0.
 00000810,0.00006159,0.00015391,-0.00001240,0.00010636,-0.00040099,0.00
 013027,-0.00003696,-0.00003887,0.00000358,-0.00001318,-0.00001735,0.00
 000885,-0.00001764,-0.00000030,0.00000598,0.00002847,-0.00003230,-0.00
 001077,0.00007645,0.00001375,0.00001315,0.00000998,-0.00000308,0.00002
 685,-0.00000182,-0.00000239,-0.00001543,0.00000812,0.00000057,-0.00006
 724,0.00000199,0.00000708,0.00001894,0.00001261,0.00001565,0.00000735,
 0.00000239,-0.00001882,0.00002922,0.00002442,-0.00001612,0.00001137,-0
 .00008739,0.00001968,-0.00003738,0.00002402,0.00005583,-0.00000701,-0.
 00003819,0.00004466,-0.00000809,-0.00000460,0.00003317,0.00002720,-0.0
 0006580,0.00007286,-0.00007995,0.00000115,0.00001294,-0.00000700,-0.00
 001630,0.00000195,-0.00000578,-0.00000101,-0.00000804,-0.00000641,0.00
 007096,-0.00001690,0.00003399,-0.01531751,0.00923369,-0.00659859,-0.00
 354402,0.00602032,-0.00281423,0.02675760,-0.00047570,-0.00212851,0.002
 70382,-0.00070967,0.00004995,-0.00011348,-0.00003575,0.00009120,0.0001
 6869,-0.00010354,0.00010188,-0.00002354,0.00003183,-0.00000631,-0.0000
 0375,-0.00014650,0.00005839,0.00016993,0.00087587,-0.00037603,-0.00017
 734,-0.00104403,0.00090911,-0.00027603,0.00010285,-0.00013895,-0.00001
 299,-0.00003251,0.00009560,-0.00001235,-0.00010409,0.00004880,0.000035
 03,-0.00005078,-0.00010453,-0.00011938,0.00013276,0.00007814,-0.000345
 95,-0.00015673,0.00004839,0.00010650,0.00000173,0.00001891,-0.00000428
 ,-0.00001252,-0.00000692,-0.00003829,-0.00004737,0.00012836,0.00000295
 ,0.00035922,0.00059480,0.00014359,-0.00036089,-0.00147678,-0.00122717,
 -0.00040757,-0.00011001,-0.00002525,0.00080851,0.00033063,-0.00019175,
 0.00023637,0.00027073,0.00010390,-0.00006121,0.00043557,0.00021545,-0.
 00008996,-0.00003968,0.00012878,-0.00000722,-0.00000440,0.00001078,-0.
 00002994,0.00000211,0.00002343,0.00002494,-0.00000838,-0.00001198,-0.0
 0003126,0.00003460,0.00004079,0.00001524,-0.00007157,-0.00000571,0.000
 00236,0.00007124,0.00003978,0.00093265,0.00027165,0.00021533,0.0000323
 7,0.00002953,0.00006339,-0.00000313,0.00004997,-0.00003139,0.00016123,
 0.00003914,0.00003945,0.00008315,0.00005263,0.00020137,0.00005134,0.00
 000859,0.00002427,0.00002538,-0.00001623,0.00002404,0.00002069,0.00000
 257,0.00001504,0.00003339,-0.00001271,0.00002464,0.00076871,0.00277209
 ,0.00391521,0.00148472,-0.00246606,0.00014262,-0.00054825,0.00076451,0
 .00090176,0.00013666,-0.00024886,0.00014074,0.00003588,-0.00007520,0.0
 0010332,0.00000351,0.00003902,-0.00017891,0.00047080,-0.00076835,0.000
 21247,0.00027252,-0.00023694,0.00034206,0.00015499,-0.00019109,-0.0003
 5494,-0.00011025,0.00000528,-0.00002741,-0.00001692,-0.00003097,-0.000
 08568,-0.00017563,-0.00009690,0.00001918,-0.00010685,0.00004521,0.0001
 4978,-0.00019192,-0.00136561,0.00061514,-0.00001089,-0.00025824,-0.000
 18695,0.00005337,0.00002424,0.00001964,0.00002670,-0.00005791,-0.00003
 098,0.00001144,-0.00016314,-0.00016005,0.00059892,0.00057640,0.0001577
 4,-0.00001365,0.00000588,-0.00007951,-0.00000782,-0.00000087,0.0000389
 0,-0.00000933,0.00001367,0.00016686,-0.00000121,-0.00002468,-0.0000308
 4,-0.00001058,-0.00002048,-0.00002362,-0.00018547,-0.00010098,0.000050
 38,-0.00006204,0.00000110,0.00004067,0.00007699,0.00001413,0.00002578,
 -0.00003362,-0.00006871,0.00001145,0.00002055,-0.00005938,-0.00000017,
 -0.00000424,-0.00004170,-0.00003884,0.00002375,-0.00001586,0.00007080,
 0.00010850,-0.00002341,0.00001672,0.00005067,-0.00000021,0.00002397,0.
 00008737,0.00003662,0.00002148,-0.00010659,0.00010381,-0.00008754,0.01
 149454,-0.04259174,0.03284018,0.00434667,-0.00316563,0.00048004,-0.018
 65347,0.04834950,0.00229204,0.00353720,-0.00364877,-0.00014108,-0.0001
 7101,0.00020777,0.00002947,-0.00007094,0.00010859,0.00004556,0.0000105
 7,0.00001789,-0.00005493,0.00001339,0.00003108,0.00010442,-0.00003163,
 -0.00012609,-0.00076021,0.00023680,0.00027606,0.00068402,-0.00038323,0
 .00034997,-0.00008222,0.00008693,-0.00000509,0.00003235,-0.00005986,0.
 00001364,0.00005391,-0.00003639,0.00000746,0.00025048,-0.00004342,-0.0
 0008424,0.00007553,-0.00001787,-0.00004479,0.00004840,-0.00004917,0.00
 004866,0.00001775,-0.00003734,-0.00000947,0.00000242,0.00000928,0.0000
 3950,0.00002198,0.00005935,-0.00001084,0.00048320,0.00085591,-0.000640
 57,0.00176210,-0.00173927,-0.00118198,0.00012563,0.00013044,0.00030834
 ,0.00008156,0.00006595,0.00033735,0.00025027,-0.00018729,0.00019798,-0
 .00030074,-0.00003960,-0.00033444,0.00003764,0.00000157,-0.00006921,0.
 00000294,0.00000533,-0.00000763,0.00001143,0.00000399,0.00001043,-0.00
 001173,0.00001159,0.00000290,0.00001829,-0.00002496,-0.00002584,-0.000
 00040,0.00002928,-0.00000062,0.00000029,-0.00004402,-0.00001843,0.0013
 0798,0.00009134,-0.00080126,0.00006771,0.00000348,-0.00001563,0.000019
 53,-0.00001783,-0.00002684,-0.00006939,0.00002284,-0.00004172,-0.00014
 993,0.00007165,-0.00018671,-0.00005465,0.00002673,-0.00004235,-0.00003
 933,-0.00000011,-0.00000364,-0.00000759,0.00000403,-0.00000631,-0.0000
 2633,0.00000589,0.00001080,0.00027116,0.00275041,0.00140072,-0.0004727
 1,0.00065214,0.00007485,0.00021081,-0.00038676,-0.00026210,-0.00002867
 ,0.00007295,-0.00005710,-0.00002617,0.00003990,-0.00006408,0.00001704,
 -0.00003372,0.00011019,-0.00032606,0.00054977,-0.00027625,-0.00095015,
 0.00108159,-0.00158825,-0.00027088,0.00037749,0.00059139,0.00029594,0.
 00005002,0.00013174,0.00009224,0.00016801,-0.00003489,0.00020005,-0.00
 010549,-0.00003633,0.00014411,0.00003891,-0.00013973,0.00000862,0.0008
 7164,-0.00057718,0.00009025,0.00012618,0.00009237,-0.00002525,-0.00006
 446,-0.00001934,-0.00009756,0.00007255,0.00008628,0.00000237,0.0001087
 0,0.00014058,-0.00040319,-0.00042916,-0.00016416,0.00002160,-0.0000167
 8,0.00006445,0.00000360,-0.00000039,-0.00002555,0.00000985,-0.00000230
 ,-0.00007017,-0.00000030,0.00001470,0.00002371,0.00001085,0.00002216,0
 .00000890,0.00010620,0.00005502,-0.00003680,0.00006740,0.00000439,-0.0
 0003703,-0.00010827,0.00001985,-0.00006026,0.00006292,0.00010052,0.000
 00210,-0.00004096,0.00006684,-0.00000790,-0.00001133,0.00007400,0.0000
 5370,-0.00009356,0.00002023,-0.00010951,-0.00008331,0.00002426,-0.0000
 0181,-0.00004431,0.00000170,-0.00003204,-0.00005495,-0.00002939,-0.000
 01448,0.00008284,-0.00007690,-0.00007172,-0.00904971,0.03386905,-0.047
 53145,-0.00045836,-0.00131550,0.00343819,0.00471953,-0.04110174,0.0503
 6302\\0.00000045,0.00000527,-0.00000446,0.00000304,0.00000125,0.000002
 31,-0.00000355,-0.00000099,-0.00000011,-0.00000118,0.00000145,-0.00000
 143,0.00000093,0.00000151,0.00000508,0.00000076,-0.00000007,-0.0000004
 1,-0.00000428,0.00000218,-0.00000282,0.00000337,-0.00000302,-0.0000020
 2,-0.00000032,-0.00000169,-0.00000234,0.00000106,0.00000210,0.00000158
 ,0.00000079,0.00000127,0.00000066,0.00000113,-0.00000059,0.00000376,0.
 00000117,0.00000089,-0.00000092,-0.00000090,-0.00000274,-0.00000100,-0
 .00000041,-0.00000139,-0.00000017,-0.00000125,-0.00000010,0.00000222,0
 .00000033,-0.00000104,0.00000272,0.00000065,0.00000345,0.00000242,0.00
 000155,-0.00000430,-0.00000030,-0.00000308,0.00000073,-0.00000100,-0.0
 0000110,0.00000341,-0.00000102,-0.00000250,-0.00000081,0.00000044,0.00
 000272,-0.00000412,-0.00000090,0.00000137,0.00000048,0.00000166,0.0000
 0080,0.00000010,-0.00000210,0.00000141,-0.00000040,-0.00000021,0.00000
 114,0.00000125,0.00000011,0.00000167,-0.00000105,0.00000018,-0.0000000
 6,-0.00000016,-0.00000034,0.00000109,-0.00000064,-0.00000091,0.0000000
 9,-0.00000008,-0.00000041,0.00000086,-0.00000143,0.00000063,0.00000022
 ,0.00000041,0.00000062,-0.00000150,0.00000168,0.00000029,-0.00000196,-
 0.00000077,0.00000121,-0.00000042,0.00000087,0.00000185,0.00000016,0.0
 0000099,0.00000143,0.00000086,-0.00000011,-0.00000053,-0.00000068,-0.0
 0000125,-0.00000150,0.00000124,0.00000993,0.00000567,-0.00000054,0.000
 00422,0.00000089,0.00000153,-0.00000476,-0.00000161,0.00000232,-0.0000
 0131,-0.00000071,0.00000039,0.00000174,0.00000299,0.00000009,0.0000010
 9,0.00000174,-0.00000027,0.00000162,-0.00000415,0.00000144,0.00000069,
 -0.00000623,-0.00000068,0.00000008,0.00000372,-0.00000202,-0.00000009,
 0.00000487,0.00000149,-0.00000250,-0.00000373,-0.00000371,-0.00000421,
 0.00000033,0.00000069,0.00000448,0.00000128,-0.00000311,-0.00001771,-0
 .00000067,-0.00000237,0.00000685,-0.00000104,0.00000115,-0.00000366,-0
 .00000039,-0.00000032,0.00000555,-0.00000103,0.00000627,0.00000038,-0.
 00000026,-0.00000225,0.00000439,-0.00000108,-0.00000075,0.00000110,-0.
 00000002,0.00000094,0.00000027,-0.00000163,-0.00000064,0.00000134,-0.0
 0000026,-0.00000026,0.00000077,-0.00000072,-0.00000036,0.00000073,-0.0
 0000146,0.00000130,-0.00000067,-0.00000083,-0.00000104,0.00000054,-0.0
 0000133,0.00000031,0.00000017,-0.00000110,0.00000137,-0.00000023,-0.00
 000070,-0.00000100,0.00000097,0.00000104,-0.00000059,0.00000036,0.0000
 0174,-0.00000024,-0.00000077,0.00000070,-0.00000093,0.00000096,-0.0000
 0031,-0.00000141,-0.00000067,-0.00000130,-0.00000026,-0.00000190,-0.00
 000105,-0.00000052,-0.00000193,0.00000019,0.00000719,-0.00001065,-0.00
 000215,-0.00000250,-0.00000157,0.00000437,-0.00000641,0.00000181,-0.00
 000002\\\@


 GOOD SENSE ABOUT TRIVIALITIES IS BETTER THAN NONSENSE
 ABOUT THINGS THAT MATTER

                                       -- MAX BEERBOHM
 Job cpu time:       0 days  8 hours 58 minutes 12.8 seconds.
 File lengths (MBytes):  RWF=   5333 Int=      0 D2E=      0 Chk=    144 Scr=      1
 Normal termination of Gaussian 09 at Wed Nov 17 02:00:17 2021.
