 Entering Gaussian System, Link 0=g09
 Input=XantPhos_4_SPE_NoPd.com
 Output=XantPhos_4_SPE_NoPd.log
 Initial command:
 /gstore/apps/gaussian/g09.e01-foss-2017a/g09/l1.exe "/local/29510744/Gau-1034.inp" -scrdir="/local/29510744/"
 Entering Link 1 = /gstore/apps/gaussian/g09.e01-foss-2017a/g09/l1.exe PID=      1035.
  
 Copyright (c) 1988,1990,1992,1993,1995,1998,2003,2009,2015,
            Gaussian, Inc.  All Rights Reserved.
  
 This is part of the Gaussian(R) 09 program.  It is based on
 the Gaussian(R) 03 system (copyright 2003, Gaussian, Inc.),
 the Gaussian(R) 98 system (copyright 1998, Gaussian, Inc.),
 the Gaussian(R) 94 system (copyright 1995, Gaussian, Inc.),
 the Gaussian 92(TM) system (copyright 1992, Gaussian, Inc.),
 the Gaussian 90(TM) system (copyright 1990, Gaussian, Inc.),
 the Gaussian 88(TM) system (copyright 1988, Gaussian, Inc.),
 the Gaussian 86(TM) system (copyright 1986, Carnegie Mellon
 University), and the Gaussian 82(TM) system (copyright 1983,
 Carnegie Mellon University). Gaussian is a federally registered
 trademark of Gaussian, Inc.
  
 This software contains proprietary and confidential information,
 including trade secrets, belonging to Gaussian, Inc.
  
 This software is provided under written license and may be
 used, copied, transmitted, or stored only in accord with that
 written license.
  
 The following legend is applicable only to US Government
 contracts under FAR:
  
                    RESTRICTED RIGHTS LEGEND
  
 Use, reproduction and disclosure by the US Government is
 subject to restrictions as set forth in subparagraphs (a)
 and (c) of the Commercial Computer Software - Restricted
 Rights clause in FAR 52.227-19.
  
 Gaussian, Inc.
 340 Quinnipiac St., Bldg. 40, Wallingford CT 06492
  
  
 ---------------------------------------------------------------
 Warning -- This program may not be used in any manner that
 competes with the business of Gaussian, Inc. or will provide
 assistance to any competitor of Gaussian, Inc.  The licensee
 of this program is prohibited from giving any competitor of
 Gaussian, Inc. access to this program.  By using this program,
 the user acknowledges that Gaussian, Inc. is engaged in the
 business of creating and licensing software in the field of
 computational chemistry and represents and warrants to the
 licensee that it is not a competitor of Gaussian, Inc. and that
 it will not use this program in any manner prohibited above.
 ---------------------------------------------------------------
  

 Cite this work as:
 Gaussian 09, Revision E.01,
 M. J. Frisch, G. W. Trucks, H. B. Schlegel, G. E. Scuseria, 
 M. A. Robb, J. R. Cheeseman, G. Scalmani, V. Barone, B. Mennucci, 
 G. A. Petersson, H. Nakatsuji, M. Caricato, X. Li, H. P. Hratchian, 
 A. F. Izmaylov, J. Bloino, G. Zheng, J. L. Sonnenberg, M. Hada, 
 M. Ehara, K. Toyota, R. Fukuda, J. Hasegawa, M. Ishida, T. Nakajima, 
 Y. Honda, O. Kitao, H. Nakai, T. Vreven, J. A. Montgomery, Jr., 
 J. E. Peralta, F. Ogliaro, M. Bearpark, J. J. Heyd, E. Brothers, 
 K. N. Kudin, V. N. Staroverov, T. Keith, R. Kobayashi, J. Normand, 
 K. Raghavachari, A. Rendell, J. C. Burant, S. S. Iyengar, J. Tomasi, 
 M. Cossi, N. Rega, J. M. Millam, M. Klene, J. E. Knox, J. B. Cross, 
 V. Bakken, C. Adamo, J. Jaramillo, R. Gomperts, R. E. Stratmann, 
 O. Yazyev, A. J. Austin, R. Cammi, C. Pomelli, J. W. Ochterski, 
 R. L. Martin, K. Morokuma, V. G. Zakrzewski, G. A. Voth, 
 P. Salvador, J. J. Dannenberg, S. Dapprich, A. D. Daniels, 
 O. Farkas, J. B. Foresman, J. V. Ortiz, J. Cioslowski, 
 and D. J. Fox, Gaussian, Inc., Wallingford CT, 2013.
 
 ******************************************
 Gaussian 09:  ES64L-G09RevE.01 30-Nov-2015
                12-Feb-2022 
 ******************************************
 %nprocs=28
 Will use up to   28 processors via shared memory.
 %mem=128GB
 %chk=XantPhos_4_SPE_NoPd.chk
 ----------------------------------------------------------------------
 # PBE1PBE/def2TZVP int=(grid=ultrafine) empiricaldispersion=GD3BJ nmr=
 giao
 ----------------------------------------------------------------------
 1/38=1/1;
 2/12=2,17=6,18=5,40=1/2;
 3/5=44,7=101,11=2,16=1,25=1,30=1,74=-13,75=-5,124=41/1,2,8,3;
 4//1;
 5/5=2,38=5/2;
 8/6=1,10=90,11=11/1;
 10/13=100,45=16/2;
 6/7=2,8=2,9=2,10=2,28=1/1;
 99/9=1/99;
 ----------------
 XantPhos_4 title
 ----------------
 Symbolic Z-matrix:
 Charge =  0 Multiplicity = 1
 P                    -1.52064   1.65027  -3.58424 
 C                    -2.07483   2.17701  -1.89508 
 C                    -3.43227   2.41112  -1.58538 
 C                    -3.82912   2.64251  -0.26269 
 C                    -2.88595   2.64957   0.77898 
 C                    -1.52138   2.4764    0.50796 
 C                    -1.15526   2.27139  -0.83489 
 O                     0.1843    2.13725  -1.13369 
 C                    -0.37905   2.52245   1.53847 
 C                    -0.88774   2.29596   2.96966 
 C                     0.30308   3.91856   1.45294 
 C                    -2.14785  -0.06861  -3.78567 
 C                    -3.29092  -0.56265  -3.13116 
 C                    -3.77281  -1.84245  -3.43285 
 C                    -3.1221   -2.63481  -4.38974 
 C                    -1.98027  -2.14874  -5.04171 
 C                    -1.49052  -0.87296  -4.7368 
 C                    -2.68258   2.58852  -4.66031 
 C                    -2.87811   3.96699  -4.43429 
 C                    -4.44907   4.05275  -6.28625 
 C                    -3.76543   4.68909  -5.23924 
 C                    -4.24576   2.68727  -6.52261 
 C                    -3.36813   1.95366  -5.71186 
 H                    -4.17357   2.40877  -2.3904 
 H                    -3.22348   2.80876   1.80728 
 H                    -4.88615   2.8134   -0.037 
 H                    -1.38514   1.31737   3.07925 
 H                    -1.60104   3.08619   3.25573 
 H                     0.6849    4.11846   0.43921 
 H                    -0.42148   4.70846   1.71496 
 H                    -2.33089   4.47136  -3.63419 
 H                    -5.13679   4.62325  -6.91902 
 H                    -4.77451   2.1836   -7.33837 
 H                    -3.22439   0.88557  -5.89783 
 H                    -3.80094   0.04745  -2.38005 
 H                    -4.66065  -2.2229   -2.91673 
 H                    -3.49968  -3.63615  -4.62054 
 H                    -1.45757  -2.77014  -5.77534 
 H                    -0.58918  -0.48708  -5.22733 
 P                     1.64894   0.07554  -2.6518 
 C                     1.74515   0.36607  -0.82773 
 C                     2.39716  -0.50984   0.06535 
 C                     2.21135  -0.38213   1.44678 
 C                     1.3321    0.58187   1.96807 
 C                     0.64263   1.45382   1.11418 
 C                     0.89384   1.33093  -0.26385 
 C                     0.82027  -1.58597  -2.5835 
 C                     1.28255  -2.69204  -3.32102 
 C                     0.63253  -3.93062  -3.22203 
 C                    -0.48452  -4.07945  -2.39121 
 C                    -0.95231  -2.98066  -1.65498 
 C                    -0.30622  -1.74476  -1.74956 
 C                     3.31484  -0.34367  -3.29638 
 C                     3.40074  -0.59209  -4.68218 
 C                     5.77538  -1.0456   -4.4667 
 C                     4.62264  -0.95164  -5.26054 
 C                     5.69961  -0.76568  -3.09629 
 C                     4.47576  -0.41614  -2.50917 
 H                     3.01124  -1.32605  -0.32511 
 H                     1.17109   0.63247   3.04878 
 H                     2.72915  -1.0655    2.12663 
 H                    -0.05293   2.34756   3.68774 
 H                     1.1502    3.96644   2.15826 
 H                     2.51403  -0.46252  -5.31298 
 H                     4.44193  -0.15495  -1.44929 
 H                     2.16574  -2.59576  -3.95803 
 H                     1.01204  -4.78443  -3.79333 
 H                    -0.98965  -5.04776  -2.31423 
 H                    -1.828    -3.0839   -1.00663 
 H                    -0.67618  -0.89994  -1.15951 
 H                     6.60179  -0.80316  -2.47708 
 H                     6.73447  -1.31408  -4.92085 
 H                     4.67844  -1.13414  -6.33848 
 H                    -3.9108    5.75848  -5.05599 
 
 Stoichiometry    C39H32OP2
 Framework group  C1[X(C39H32OP2)]
 Deg. of freedom   216
 Full point group                 C1      NOp   1
 Largest Abelian subgroup         C1      NOp   1
 Largest concise Abelian subgroup C1      NOp   1
                         Standard orientation:                         
 ---------------------------------------------------------------------
 Center     Atomic      Atomic             Coordinates (Angstroms)
 Number     Number       Type             X           Y           Z
 ---------------------------------------------------------------------
      1         15           0       -1.755702   -0.743115   -0.794153
      2          6           0       -2.215296    0.965510   -0.239892
      3          6           0       -3.450363    1.250125    0.382192
      4          6           0       -3.691797    2.513005    0.936608
      5          6           0       -2.713284    3.520081    0.881710
      6          6           0       -1.494944    3.296942    0.224951
      7          6           0       -1.295880    2.025067   -0.342530
      8          8           0       -0.122222    1.791885   -1.027988
      9          6           0       -0.364730    4.324576    0.036366
     10          6           0       -0.466946    5.481051    1.041602
     11          6           0       -0.455125    4.893775   -1.409173
     12          6           0       -1.509813   -1.705342    0.755740
     13          6           0       -2.156977   -1.407429    1.968798
     14          6           0       -2.011077   -2.261543    3.068942
     15          6           0       -1.224033   -3.417773    2.966029
     16          6           0       -0.573731   -3.716909    1.760739
     17          6           0       -0.710403   -2.861065    0.661067
     18          6           0       -3.379794   -1.391108   -1.369274
     19          6           0       -4.170256   -0.610098   -2.237999
     20          6           0       -5.865337   -2.351015   -2.268602
     21          6           0       -5.410480   -1.087408   -2.674718
     22          6           0       -5.076006   -3.135224   -1.417888
     23          6           0       -3.837724   -2.658296   -0.965172
     24          1           0       -4.218766    0.472304    0.428413
     25          1           0       -2.916171    4.490986    1.343077
     26          1           0       -4.650558    2.715802    1.423521
     27          1           0       -0.412290    5.125439    2.084486
     28          1           0       -1.414532    6.027791    0.906449
     29          1           0       -0.382968    4.093055   -2.162194
     30          1           0       -1.416136    5.417913   -1.548164
     31          1           0       -3.809868    0.365009   -2.574595
     32          1           0       -6.833169   -2.724317   -2.618973
     33          1           0       -5.423273   -4.122848   -1.097363
     34          1           0       -3.233691   -3.273759   -0.292553
     35          1           0       -2.768463   -0.504878    2.058293
     36          1           0       -2.514067   -2.021753    4.011750
     37          1           0       -1.109504   -4.081365    3.829196
     38          1           0        0.056896   -4.607668    1.680646
     39          1           0       -0.194246   -3.074531   -0.282309
     40         15           0        1.883887   -0.357323   -0.789458
     41          6           0        2.120621    1.416915   -0.323710
     42          6           0        3.245019    1.891235    0.383869
     43          6           0        3.244828    3.177294    0.936352
     44          6           0        2.108621    3.998822    0.845600
     45          6           0        0.960018    3.555491    0.175558
     46          6           0        1.014963    2.279126   -0.411847
     47          6           0        1.971524   -1.066066    0.925761
     48          6           0        2.780576   -2.172361    1.246013
     49          6           0        2.825715   -2.659647    2.560139
     50          6           0        2.064571   -2.053086    3.566589
     51          6           0        1.254023   -0.951447    3.254149
     52          6           0        1.207483   -0.461617    1.945820
     53          6           0        3.420160   -1.001403   -1.558527
     54          6           0        3.390913   -2.350135   -1.970380
     55          6           0        5.693762   -2.184809   -2.719087
     56          6           0        4.525666   -2.939974   -2.537156
     57          6           0        5.714266   -0.835740   -2.342674
     58          6           0        4.584012   -0.242431   -1.763704
     59          1           0        4.102541    1.232414    0.546245
     60          1           0        2.118478    4.982692    1.323450
     61          1           0        4.127234    3.532752    1.477019
     62          1           0        0.344832    6.208205    0.875881
     63          1           0        0.367028    5.608696   -1.583330
     64          1           0        2.461819   -2.924608   -1.882518
     65          1           0        4.599945    0.821845   -1.519217
     66          1           0        3.395759   -2.643214    0.474706
     67          1           0        3.469506   -3.513840    2.795262
     68          1           0        2.102427   -2.434196    4.592280
     69          1           0        0.650454   -0.472844    4.031642
     70          1           0        0.579232    0.406279    1.720409
     71          1           0        6.610931   -0.231129   -2.513559
     72          1           0        6.577864   -2.642065   -3.174574
     73          1           0        4.488273   -3.985237   -2.860253
     74          1           0       -6.016978   -0.473957   -3.348620
 ---------------------------------------------------------------------
 Rotational constants (GHZ):      0.0947259      0.0742311      0.0573624
 Standard basis: def2TZVP (5D, 7F)
 There are  1716 symmetry adapted cartesian basis functions of A   symmetry.
 There are  1506 symmetry adapted basis functions of A   symmetry.
  1506 basis functions,  2434 primitive gaussians,  1716 cartesian basis functions
   152 alpha electrons      152 beta electrons
       nuclear repulsion energy      5296.1216417962 Hartrees.
 NAtoms=   74 NActive=   74 NUniq=   74 SFac= 1.00D+00 NAtFMM=   60 NAOKFM=T Big=T
 Integral buffers will be    131072 words long.
 Raffenetti 2 integral format.
 Two-electron integral symmetry is turned on.
 Nuclear repulsion after empirical dispersion term =     5295.9991861051 Hartrees.
 One-electron integrals computed using PRISM.
   1 Symmetry operations used in ECPInt.
 ECPInt:  NShTT=  176715 NPrTT=  548629 LenC2=  138606 LenP2D=  284275.
 LDataN:  DoStor=T MaxTD1= 6 Len=  172
 NBasis=  1506 RedAO= T EigKep=  4.06D-06  NBF=  1506
 NBsUse=  1506 1.00D-06 EigRej= -1.00D+00 NBFU=  1506
 ExpMin= 9.04D-02 ExpMax= 5.24D+04 ExpMxC= 1.79D+03 IAcc=3 IRadAn=         5 AccDes= 0.00D+00
 Harris functional with IExCor= 1009 and IRadAn=       5 diagonalized for initial guess.
 HarFok:  IExCor= 1009 AccDes= 0.00D+00 IRadAn=         5 IDoV= 1 UseB2=F ITyADJ=14
 ICtDFT=  3500011 ScaDFX=  1.000000  1.000000  1.000000  1.000000
 FoFCou: FMM=F IPFlag=           0 FMFlag=      100000 FMFlg1=        2001
         NFxFlg=           0 DoJE=T BraDBF=F KetDBF=T FulRan=T
         wScrn=  0.000000 ICntrl=     500 IOpCl=  0 I1Cent=   200000004 NGrid=           0
         NMat0=    1 NMatS0=      1 NMatT0=    0 NMatD0=    1 NMtDS0=    0 NMtDT0=    0
 Petite list used in FoFCou.
 Requested convergence on RMS density matrix=1.00D-08 within 128 cycles.
 Requested convergence on MAX density matrix=1.00D-06.
 Requested convergence on             energy=1.00D-06.
 No special actions if energy rises.
 Integral accuracy reduced to 1.0D-05 until final iterations.
 Problem detected with inexpensive integrals.
 Switching to full accuracy and repeating last cycle.
 SCF Done:  E(RPBE1PBE) =  -2261.88770206     A.U. after   15 cycles
            NFock= 15  Conv=0.62D-08     -V/T= 2.0048
 DoSCS=F DFT=T ScalE2(SS,OS)=  1.000000  1.000000
 Range of M.O.s used for correlation:     1  1506
 NBasis=  1506 NAE=   152 NBE=   152 NFC=     0 NFV=     0
 NROrb=   1506 NOA=   152 NOB=   152 NVA=  1354 NVB=  1354

 **** Warning!!: The largest alpha MO coefficient is  0.49033017D+02

          Differentiating once with respect to magnetic field using GIAOs.
          Electric field/nuclear overlap derivatives assumed to be zero.
 FoFCou: FMM=F IPFlag=           0 FMFlag=      100000 FMFlg1=        2001
         NFxFlg=           0 DoJE=F BraDBF=F KetDBF=T FulRan=T
         wScrn=  0.000000 ICntrl=    6100 IOpCl=  0 I1Cent=           7 NGrid=          74
         NMat0=    1 NMatS0=      1 NMatT0=    0 NMatD0=    1 NMtDS0=    0 NMtDT0=    0
 Symmetry not used in FoFCou.
   1 Symmetry operations used in ECPInt.
 ECPInt:  NShTT=  176715 NPrTT=  548629 LenC2=  176716 LenP2D=  548629.
 LDataN:  DoStor=T MaxTD1= 7 Len=  274
 FoFJK:  IHMeth= 1 ICntrl=    6127 DoSepK=F KAlg= 0 I1Cent=   0 FoldK=F
 IRaf=         1 NMat=   1 IRICut=       1 DoRegI=T DoRafI=F ISym2E= 0.
          There are     3 degrees of freedom in the 1st order CPHF.  IDoFFX=0 NUNeed=     3.
      3 vectors produced by pass  0 Test12= 6.86D-12 3.33D-08 XBig12= 2.49D+02 2.19D+00.
 AX will form     3 AO Fock derivatives at one time.
      3 vectors produced by pass  1 Test12= 6.86D-12 3.33D-08 XBig12= 1.13D+00 2.17D-01.
      3 vectors produced by pass  2 Test12= 6.86D-12 3.33D-08 XBig12= 4.79D-03 8.73D-03.
      3 vectors produced by pass  3 Test12= 6.86D-12 3.33D-08 XBig12= 1.31D-05 4.56D-04.
      3 vectors produced by pass  4 Test12= 6.86D-12 3.33D-08 XBig12= 6.08D-08 4.94D-05.
      3 vectors produced by pass  5 Test12= 6.86D-12 3.33D-08 XBig12= 3.55D-10 4.60D-06.
      3 vectors produced by pass  6 Test12= 6.86D-12 3.33D-08 XBig12= 1.82D-12 3.95D-07.
 InvSVY:  IOpt=1 It=  1 EMax= 1.78D-15
 Solved reduced A of dimension    21 with     3 vectors.
 Calculating GIAO nuclear magnetic shielding tensors.
 SCF GIAO Magnetic shielding tensor (ppm):
      1  P    Isotropic =   313.5207   Anisotropy =    46.3647
   XX=   337.5201   YX=     6.5134   ZX=    34.9261
   XY=   -20.6562   YY=   293.9838   ZY=   -18.0608
   XZ=   -12.3262   YZ=   -12.8505   ZZ=   309.0583
   Eigenvalues:   284.3255   311.8062   344.4305
      2  C    Isotropic =    48.2181   Anisotropy =   165.0512
   XX=    34.7257   YX=    -6.4250   ZX=    54.0690
   XY=   -16.0461   YY=    -6.7702   ZY=   -36.1573
   XZ=    68.8994   YZ=   -37.4130   ZZ=   116.6987
   Eigenvalues:   -18.0565     4.4585   158.2522
      3  C    Isotropic =    40.0535   Anisotropy =   191.6510
   XX=    -7.3677   YX=   -52.6187   ZX=    52.4168
   XY=   -62.9647   YY=   -11.7848   ZY=   -36.7894
   XZ=    51.2746   YZ=   -20.9487   ZZ=   139.3131
   Eigenvalues:   -68.6870    21.0267   167.8208
      4  C    Isotropic =    56.7670   Anisotropy =   174.3785
   XX=    -8.4400   YX=    -1.7028   ZX=    79.1156
   XY=    -1.9666   YY=    60.0255   ZY=   -41.4319
   XZ=    88.7320   YZ=   -40.5354   ZZ=   118.7157
   Eigenvalues:   -52.7437    50.0255   173.0194
      5  C    Isotropic =    54.3775   Anisotropy =   177.8486
   XX=    58.8839   YX=    -4.7580   ZX=    51.3895
   XY=    -3.4284   YY=   -16.3909   ZY=   -69.7647
   XZ=    60.9443   YZ=   -62.7696   ZZ=   120.6395
   Eigenvalues:   -46.4866    36.6759   172.9432
      6  C    Isotropic =    42.5388   Anisotropy =   168.4320
   XX=    10.7196   YX=   -36.8705   ZX=    54.5236
   XY=   -35.0746   YY=    -4.6604   ZY=   -48.6330
   XZ=    47.2755   YZ=   -21.9034   ZZ=   121.5572
   Eigenvalues:   -33.9584     6.7480   154.8268
      7  C    Isotropic =    18.1851   Anisotropy =   129.9238
   XX=   -33.9535   YX=     5.6300   ZX=    68.9446
   XY=     5.5395   YY=    24.3214   ZY=   -31.7473
   XZ=    69.0935   YZ=   -18.7165   ZZ=    64.1875
   Eigenvalues:   -72.4608    22.2151   104.8010
      8  O    Isotropic =   141.0643   Anisotropy =   189.8632
   XX=    79.5908   YX=    -8.2135   ZX=     5.7281
   XY=    -6.1096   YY=   112.7281   ZY=   -75.2189
   XZ=    18.2845   YZ=   -73.0896   ZZ=   230.8739
   Eigenvalues:    76.3133    79.2397   267.6397
      9  C    Isotropic =   142.7961   Anisotropy =     8.2258
   XX=   142.1767   YX=     1.0942   ZX=     0.8135
   XY=     0.4820   YY=   138.7012   ZY=    -7.2822
   XZ=    -0.8442   YZ=     1.8848   ZZ=   147.5103
   Eigenvalues:   137.8098   142.2985   148.2800
     10  C    Isotropic =   162.4565   Anisotropy =    29.3588
   XX=   147.4380   YX=    -1.3413   ZX=    -0.8931
   XY=    -1.2706   YY=   163.4162   ZY=    13.4504
   XZ=    -0.3727   YZ=     6.7144   ZZ=   176.5154
   Eigenvalues:   147.3304   158.0101   182.0290
     11  C    Isotropic =   154.5766   Anisotropy =    44.0060
   XX=   145.4112   YX=    -0.8914   ZX=     2.2466
   XY=    -1.0383   YY=   146.1503   ZY=   -16.4700
   XZ=     3.1202   YZ=   -25.1669   ZZ=   172.1684
   Eigenvalues:   134.5909   145.2250   183.9140
     12  C    Isotropic =    41.0101   Anisotropy =   208.3594
   XX=   115.6132   YX=    75.6421   ZX=    35.8950
   XY=    87.9127   YY=    26.0485   ZY=    55.2531
   XZ=    33.2316   YZ=    46.3049   ZZ=   -18.6313
   Eigenvalues:   -54.1869    -2.6992   179.9164
     13  C    Isotropic =    46.9789   Anisotropy =   199.9327
   XX=    94.1304   YX=   115.0682   ZX=    33.0079
   XY=   104.3073   YY=    11.5312   ZY=    10.8120
   XZ=    41.9272   YZ=    16.0703   ZZ=    35.2749
   Eigenvalues:   -65.4902    26.1595   180.2674
     14  C    Isotropic =    52.0616   Anisotropy =   187.8674
   XX=   105.1524   YX=    70.0239   ZX=    73.0644
   XY=    67.8320   YY=    71.9803   ZY=     0.7117
   XZ=    73.5227   YZ=    -0.9192   ZZ=   -20.9479
   Eigenvalues:   -61.8559    40.7343   177.3065
     15  C    Isotropic =    49.7935   Anisotropy =   194.7476
   XX=   127.5525   YX=    64.5354   ZX=    27.2047
   XY=    70.6545   YY=    35.1766   ZY=    65.8572
   XZ=    27.2492   YZ=    64.8047   ZZ=   -13.3485
   Eigenvalues:   -60.5076    30.2630   179.6253
     16  C    Isotropic =    51.5593   Anisotropy =   193.0439
   XX=    96.6186   YX=   105.6288   ZX=    36.4939
   XY=   104.6147   YY=    12.9877   ZY=    17.4031
   XZ=    37.7021   YZ=    18.5275   ZZ=    45.0716
   Eigenvalues:   -58.6985    33.1211   180.2552
     17  C    Isotropic =    39.1914   Anisotropy =   197.5457
   XX=    89.3361   YX=    81.3658   ZX=    73.6762
   XY=    68.5515   YY=    66.3989   ZY=     0.0252
   XZ=    71.4710   YZ=     9.9754   ZZ=   -38.1608
   Eigenvalues:   -76.8735    23.5592   170.8885
     18  C    Isotropic =    31.5943   Anisotropy =   202.7171
   XX=     2.1573   YX=   -54.6513   ZX=   -78.8878
   XY=   -44.0889   YY=     2.5650   ZY=    57.9226
   XZ=   -75.9169   YZ=    50.7637   ZZ=    90.0607
   Eigenvalues:   -51.7076   -20.2485   166.7390
     19  C    Isotropic =    49.7973   Anisotropy =   185.2221
   XX=    53.5449   YX=   -43.3095   ZX=   -39.1462
   XY=   -56.5984   YY=   -18.4689   ZY=    72.1689
   XZ=   -34.6316   YZ=    77.4361   ZZ=   114.3160
   Eigenvalues:   -61.2824    37.3956   173.2787
     20  C    Isotropic =    55.1454   Anisotropy =   180.6989
   XX=    -4.3439   YX=   -53.9356   ZX=   -72.4908
   XY=   -53.8646   YY=    53.3024   ZY=    34.0369
   XZ=   -74.9633   YZ=    32.6333   ZZ=   116.4776
   Eigenvalues:   -52.2056    42.0304   175.6113
     21  C    Isotropic =    53.2276   Anisotropy =   183.2479
   XX=    37.9070   YX=     6.7655   ZX=   -78.7631
   XY=     5.7842   YY=    34.9981   ZY=    78.3241
   XZ=   -81.1567   YZ=    82.5997   ZZ=    86.7779
   Eigenvalues:   -58.4529    42.7429   175.3929
     22  C    Isotropic =    52.4127   Anisotropy =   183.1218
   XX=    57.8348   YX=   -54.2539   ZX=   -35.2413
   XY=   -54.0632   YY=   -17.2802   ZY=    71.4381
   XZ=   -38.1923   YZ=    70.0544   ZZ=   116.6835
   Eigenvalues:   -59.7851    42.5292   174.4939
     23  C    Isotropic =    47.8001   Anisotropy =   192.0720
   XX=    37.8580   YX=    -3.4251   ZX=   -75.8816
   XY=     5.9678   YY=    25.4684   ZY=    83.3605
   XZ=   -86.5964   YZ=    87.9551   ZZ=    80.0740
   Eigenvalues:   -65.8324    33.3846   175.8482
     24  H    Isotropic =    23.7002   Anisotropy =    10.4128
   XX=    23.4959   YX=    -5.3960   ZX=    -2.8015
   XY=    -2.2629   YY=    24.7670   ZY=     4.5281
   XZ=     0.3591   YZ=     4.9405   ZZ=    22.8377
   Eigenvalues:    18.3883    22.0702    30.6421
     25  H    Isotropic =    23.6278   Anisotropy =     9.3124
   XX=    27.8501   YX=     2.0856   ZX=    -2.8743
   XY=     3.3911   YY=    22.8047   ZY=    -0.2159
   XZ=    -3.5979   YZ=     1.6282   ZZ=    20.2284
   Eigenvalues:    18.3804    22.6669    29.8360
     26  H    Isotropic =    23.9402   Anisotropy =     5.5612
   XX=    23.9810   YX=     0.3306   ZX=    -1.4206
   XY=     0.9621   YY=    27.0165   ZY=     1.9179
   XZ=    -0.7264   YZ=     2.1305   ZZ=    20.8232
   Eigenvalues:    19.8618    24.3112    27.6477
     27  H    Isotropic =    29.8682   Anisotropy =     9.0306
   XX=    27.4209   YX=     0.3636   ZX=    -0.1246
   XY=    -0.0952   YY=    27.0122   ZY=     1.3049
   XZ=    -0.1764   YZ=     3.7360   ZZ=    35.1714
   Eigenvalues:    26.2712    27.4448    35.8886
     28  H    Isotropic =    29.2764   Anisotropy =     8.9933
   XX=    31.1233   YX=    -2.9752   ZX=    -1.2443
   XY=    -3.5948   YY=    31.6846   ZY=     2.0406
   XZ=    -1.1573   YZ=     2.3080   ZZ=    25.0213
   Eigenvalues:    24.3658    28.1915    35.2719
     29  H    Isotropic =    29.1415   Anisotropy =     6.5022
   XX=    22.8294   YX=    -0.8601   ZX=     0.0239
   XY=    -0.9888   YY=    31.1342   ZY=    -0.3178
   XZ=     0.2030   YZ=    -0.0226   ZZ=    33.4607
   Eigenvalues:    22.7269    31.2212    33.4763
     30  H    Isotropic =    30.1387   Anisotropy =     9.7407
   XX=    30.0851   YX=    -3.7031   ZX=     1.9935
   XY=    -3.3053   YY=    30.6641   ZY=    -2.2232
   XZ=     3.2837   YZ=    -4.7826   ZZ=    29.6670
   Eigenvalues:    26.5241    27.2595    36.6325
     31  H    Isotropic =    23.7889   Anisotropy =    12.2936
   XX=    26.8099   YX=     0.4454   ZX=     6.3033
   XY=     0.3073   YY=    19.6043   ZY=     0.3996
   XZ=     5.5923   YZ=     1.8453   ZZ=    24.9524
   Eigenvalues:    19.0616    20.3204    31.9846
     32  H    Isotropic =    24.1752   Anisotropy =     3.5594
   XX=    24.2897   YX=     0.4771   ZX=     1.9921
   XY=     0.5552   YY=    25.4366   ZY=    -1.9024
   XZ=     1.5444   YZ=    -1.9714   ZZ=    22.7994
   Eigenvalues:    20.8277    25.1498    26.5482
     33  H    Isotropic =    24.2380   Anisotropy =     7.3371
   XX=    26.9914   YX=     0.9705   ZX=     3.7820
   XY=     1.3181   YY=    23.1346   ZY=    -0.0975
   XZ=     3.3757   YZ=    -0.2898   ZZ=    22.5879
   Eigenvalues:    20.3883    23.1962    29.1294
     34  H    Isotropic =    24.9239   Anisotropy =    15.7876
   XX=    29.0831   YX=     5.4748   ZX=     6.7667
   XY=     6.6556   YY=    24.4673   ZY=     4.1871
   XZ=     3.2601   YZ=     0.8859   ZZ=    21.2211
   Eigenvalues:    18.7228    20.5999    35.4489
     35  H    Isotropic =    23.9841   Anisotropy =    11.8706
   XX=    20.0951   YX=    -2.6838   ZX=    -0.6219
   XY=     1.3171   YY=    23.1267   ZY=    -3.5878
   XZ=    -2.1796   YZ=    -6.8124   ZZ=    28.7305
   Eigenvalues:    18.7258    21.3287    31.8978
     36  H    Isotropic =    24.2284   Anisotropy =     5.9822
   XX=    23.0634   YX=    -2.1382   ZX=    -0.8065
   XY=    -0.8406   YY=    25.0976   ZY=    -2.9034
   XZ=    -0.2308   YZ=    -3.6531   ZZ=    24.5243
   Eigenvalues:    20.6835    23.7853    28.2166
     37  H    Isotropic =    24.3430   Anisotropy =     3.2743
   XX=    24.2633   YX=    -0.8354   ZX=    -2.9093
   XY=    -0.6743   YY=    24.9360   ZY=    -0.3472
   XZ=    -1.8807   YZ=    -0.3222   ZZ=    23.8296
   Eigenvalues:    21.4754    25.0277    26.5258
     38  H    Isotropic =    24.6706   Anisotropy =     4.9066
   XX=    23.0122   YX=     2.3755   ZX=    -0.7216
   XY=     1.3162   YY=    25.6434   ZY=    -1.4766
   XZ=    -1.1662   YZ=    -1.7482   ZZ=    25.3562
   Eigenvalues:    22.0571    24.0131    27.9417
     39  H    Isotropic =    23.5673   Anisotropy =     6.1159
   XX=    25.2079   YX=    -1.6060   ZX=     3.0754
   XY=    -0.2827   YY=    26.2664   ZY=    -0.4900
   XZ=     0.9506   YZ=    -3.1789   ZZ=    19.2277
   Eigenvalues:    18.3278    24.7296    27.6446
     40  P    Isotropic =   313.1428   Anisotropy =    25.4131
   XX=   310.7115   YX=   -13.8215   ZX=    35.6876
   XY=    16.3688   YY=   300.2071   ZY=    -8.0400
   XZ=   -36.5079   YZ=    -5.5689   ZZ=   328.5098
   Eigenvalues:   298.5472   310.7963   330.0848
     41  C    Isotropic =    47.2609   Anisotropy =   163.6888
   XX=    24.2662   YX=    10.7373   ZX=   -53.3194
   XY=    15.9040   YY=    -7.8758   ZY=   -51.5662
   XZ=   -37.4777   YZ=   -39.4421   ZZ=   125.3922
   Eigenvalues:   -21.9447     7.3406   156.3867
     42  C    Isotropic =    40.7177   Anisotropy =   190.8901
   XX=    -6.7291   YX=    54.5846   ZX=   -60.4086
   XY=    65.3984   YY=     6.5270   ZY=   -36.4812
   XZ=   -69.4493   YZ=   -28.9669   ZZ=   122.3553
   Eigenvalues:   -65.1228    19.2982   167.9778
     43  C    Isotropic =    55.9568   Anisotropy =   176.4636
   XX=     1.0200   YX=    -3.5662   ZX=   -77.2815
   XY=    -2.4921   YY=    60.9725   ZY=   -52.5183
   XZ=   -90.5679   YZ=   -60.5046   ZZ=   105.8780
   Eigenvalues:   -54.1864    48.4577   173.5992
     44  C    Isotropic =    54.6491   Anisotropy =   178.8448
   XX=    55.8602   YX=    23.1687   ZX=   -38.1852
   XY=    19.8084   YY=    -7.6968   ZY=   -79.3285
   XZ=   -49.7005   YZ=   -76.8846   ZZ=   115.7839
   Eigenvalues:   -45.5184    35.5867   173.8789
     45  C    Isotropic =    43.2143   Anisotropy =   169.2631
   XX=    -4.6021   YX=    38.4937   ZX=   -41.2476
   XY=    34.2145   YY=    14.4451   ZY=   -61.6329
   XZ=   -40.1787   YZ=   -37.5837   ZZ=   119.7998
   Eigenvalues:   -32.6971     6.2836   156.0563
     46  C    Isotropic =    17.7067   Anisotropy =   133.0307
   XX=   -36.9620   YX=   -21.6111   ZX=   -56.9309
   XY=   -20.3757   YY=    18.6351   ZY=   -45.4679
   XZ=   -57.6644   YZ=   -35.1912   ZZ=    71.4470
   Eigenvalues:   -75.5238    22.2500   106.3939
     47  C    Isotropic =    31.6264   Anisotropy =   208.5516
   XX=    83.2393   YX=    91.1420   ZX=    40.1957
   XY=    83.6541   YY=    51.5045   ZY=    38.1702
   XZ=    37.3334   YZ=    41.0960   ZZ=   -39.8646
   Eigenvalues:   -55.1814   -20.6002   170.6608
     48  C    Isotropic =    54.0096   Anisotropy =   190.8993
   XX=    89.8217   YX=    91.0713   ZX=    65.6318
   XY=    90.9022   YY=    70.5207   ZY=    -8.0301
   XZ=    59.3210   YZ=   -11.0204   ZZ=     1.6865
   Eigenvalues:   -57.2840    38.0371   181.2758
     49  C    Isotropic =    54.9491   Anisotropy =   181.8289
   XX=    87.3268   YX=   106.2928   ZX=     7.0414
   XY=   108.5702   YY=    33.3737   ZY=    33.3180
   XZ=     5.5735   YZ=    33.7712   ZZ=    44.1469
   Eigenvalues:   -55.6726    44.3517   176.1684
     50  C    Isotropic =    55.2138   Anisotropy =   185.1440
   XX=   121.4915   YX=    64.8644   ZX=    18.0157
   XY=    67.8076   YY=    78.6685   ZY=    48.3135
   XZ=    18.2315   YZ=    47.6874   ZZ=   -34.5186
   Eigenvalues:   -52.3730    39.3713   178.6431
     51  C    Isotropic =    51.8490   Anisotropy =   192.7209
   XX=    90.6633   YX=    91.0291   ZX=    62.2932
   XY=    89.8950   YY=    72.1247   ZY=    -9.4426
   XZ=    60.4688   YZ=   -15.0983   ZZ=    -7.2410
   Eigenvalues:   -61.6434    36.8608   180.3296
     52  C    Isotropic =    45.9800   Anisotropy =   200.6607
   XX=    89.0226   YX=   114.3039   ZX=     9.3860
   XY=   111.8702   YY=    25.6879   ZY=    30.7517
   XZ=    20.8758   YZ=    21.4112   ZZ=    23.2295
   Eigenvalues:   -61.7395    19.9258   179.7538
     53  C    Isotropic =    42.6669   Anisotropy =   197.5388
   XX=    -9.9165   YX=     8.1426   ZX=    73.0912
   XY=     3.7482   YY=     2.1430   ZY=   -60.3408
   XZ=    61.6728   YZ=   -41.9689   ZZ=   135.7743
   Eigenvalues:   -50.0754     3.7167   174.3595
     54  C    Isotropic =    44.7109   Anisotropy =   185.4916
   XX=   -23.3069   YX=   -57.9155   ZX=    40.3111
   XY=   -65.4364   YY=    18.5958   ZY=   -24.9651
   XZ=    45.8449   YZ=   -48.8744   ZZ=   138.8439
   Eigenvalues:   -68.4848    34.2457   168.3720
     55  C    Isotropic =    52.6031   Anisotropy =   185.7041
   XX=    -8.5666   YX=    19.8442   ZX=    72.0629
   XY=    20.7210   YY=    30.8098   ZY=   -50.3160
   XZ=    75.6442   YZ=   -46.5678   ZZ=   135.5661
   Eigenvalues:   -56.9090    38.3125   176.4058
     56  C    Isotropic =    52.1767   Anisotropy =   184.6000
   XX=    53.7603   YX=   -15.1704   ZX=    36.5123
   XY=   -15.4019   YY=   -39.1758   ZY=   -61.6348
   XZ=    37.4458   YZ=   -65.9344   ZZ=   141.9457
   Eigenvalues:   -59.4930    40.7798   175.2434
     57  C    Isotropic =    50.7385   Anisotropy =   186.2534
   XX=   -13.6135   YX=   -59.3848   ZX=    51.1536
   XY=   -56.4587   YY=    17.7693   ZY=   -22.7511
   XZ=    55.3690   YZ=   -25.6200   ZZ=   148.0596
   Eigenvalues:   -61.9717    39.2797   174.9074
     58  C    Isotropic =    49.4775   Anisotropy =   186.7672
   XX=    49.2486   YX=   -22.3992   ZX=    39.7554
   XY=   -15.8301   YY=   -44.5509   ZY=   -50.2675
   XZ=    38.2841   YZ=   -62.5370   ZZ=   143.7348
   Eigenvalues:   -60.7856    35.2292   173.9890
     59  H    Isotropic =    23.7953   Anisotropy =    10.1954
   XX=    24.1315   YX=     4.1586   ZX=    -1.0903
   XY=     3.3160   YY=    25.8089   ZY=     2.5191
   XZ=     2.3652   YZ=     6.5033   ZZ=    21.4456
   Eigenvalues:    18.1788    22.6149    30.5923
     60  H    Isotropic =    23.7756   Anisotropy =     9.1550
   XX=    28.9261   YX=    -0.1924   ZX=     2.4365
   XY=    -2.3352   YY=    22.3980   ZY=     0.2421
   XZ=     3.3189   YZ=     2.1479   ZZ=    20.0025
   Eigenvalues:    18.5561    22.8917    29.8789
     61  H    Isotropic =    24.1625   Anisotropy =     5.3415
   XX=    25.1331   YX=    -0.2836   ZX=     0.2710
   XY=    -1.1624   YY=    26.9536   ZY=     1.7732
   XZ=     0.6290   YZ=     2.5355   ZZ=    20.4008
   Eigenvalues:    19.6807    25.0833    27.7235
     62  H    Isotropic =    29.3216   Anisotropy =     9.2133
   XX=    29.8459   YX=     3.0998   ZX=     0.4613
   XY=     3.1446   YY=    33.1372   ZY=     2.0641
   XZ=     0.6533   YZ=     2.2825   ZZ=    24.9816
   Eigenvalues:    24.4278    28.0731    35.4638
     63  H    Isotropic =    30.1507   Anisotropy =     9.9054
   XX=    28.5275   YX=     3.2416   ZX=    -1.8230
   XY=     2.6225   YY=    32.0708   ZY=    -2.7639
   XZ=    -2.1580   YZ=    -5.4828   ZZ=    29.8539
   Eigenvalues:    26.6043    27.0936    36.7543
     64  H    Isotropic =    23.1346   Anisotropy =    10.1170
   XX=    22.5858   YX=    -2.8615   ZX=    -1.8231
   XY=    -3.6261   YY=    24.6375   ZY=     3.7451
   XZ=    -2.2274   YZ=     4.8671   ZZ=    22.1804
   Eigenvalues:    18.8768    20.6476    29.8792
     65  H    Isotropic =    23.0330   Anisotropy =    12.4045
   XX=    28.7277   YX=    -0.9623   ZX=    -5.2971
   XY=     0.0301   YY=    20.3777   ZY=     1.1679
   XZ=    -5.0507   YZ=     3.2517   ZZ=    19.9938
   Eigenvalues:    16.6761    21.1203    31.3027
     66  H    Isotropic =    24.1730   Anisotropy =    12.0964
   XX=    20.3275   YX=    -2.2679   ZX=     0.2073
   XY=    -0.7194   YY=    23.3318   ZY=    -4.8140
   XZ=    -2.2861   YZ=    -6.1528   ZZ=    28.8597
   Eigenvalues:    18.3146    21.9671    32.2372
     67  H    Isotropic =    24.5490   Anisotropy =     5.3356
   XX=    23.7512   YX=    -2.3039   ZX=    -0.6577
   XY=    -0.8734   YY=    22.1929   ZY=    -0.9014
   XZ=    -0.9748   YZ=    -2.0043   ZZ=    27.7029
   Eigenvalues:    20.8010    24.7399    28.1061
     68  H    Isotropic =    24.8705   Anisotropy =     3.7747
   XX=    25.1763   YX=    -3.0098   ZX=     1.2266
   XY=    -2.0947   YY=    24.1704   ZY=     0.6766
   XZ=    -0.0169   YZ=    -0.7331   ZZ=    25.2647
   Eigenvalues:    22.0308    25.1937    27.3869
     69  H    Isotropic =    25.6253   Anisotropy =     6.5474
   XX=    23.8020   YX=     0.6466   ZX=     3.5890
   XY=    -0.2429   YY=    25.5116   ZY=    -1.5396
   XZ=     2.1478   YZ=    -3.0803   ZZ=    27.5621
   Eigenvalues:    21.7520    25.1337    29.9902
     70  H    Isotropic =    26.2937   Anisotropy =     9.1707
   XX=    24.6723   YX=     4.3970   ZX=    -1.7093
   XY=     1.9838   YY=    25.5696   ZY=    -2.6117
   XZ=    -1.4842   YZ=    -4.7862   ZZ=    28.6393
   Eigenvalues:    21.5924    24.8813    32.4075
     71  H    Isotropic =    23.6941   Anisotropy =     6.3854
   XX=    24.6314   YX=    -1.8796   ZX=    -2.4736
   XY=    -1.2470   YY=    24.9568   ZY=     1.6270
   XZ=    -2.8533   YZ=     2.1111   ZZ=    21.4942
   Eigenvalues:    19.8061    23.3252    27.9511
     72  H    Isotropic =    23.7333   Anisotropy =     4.1543
   XX=    24.5520   YX=     1.1504   ZX=    -1.3206
   XY=     1.4822   YY=    25.6041   ZY=     0.8164
   XZ=    -0.9929   YZ=     1.1924   ZZ=    21.0437
   Eigenvalues:    20.3413    24.3557    26.5028
     73  H    Isotropic =    23.4923   Anisotropy =     6.1082
   XX=    26.3641   YX=    -0.3907   ZX=    -2.5283
   XY=    -0.5183   YY=    22.7339   ZY=     0.8888
   XZ=    -2.5523   YZ=     1.0711   ZZ=    21.3789
   Eigenvalues:    20.1043    22.8081    27.5644
     74  H    Isotropic =    24.0130   Anisotropy =     6.1351
   XX=    25.6564   YX=     2.5792   ZX=     2.0664
   XY=     2.6121   YY=    24.2203   ZY=    -0.2679
   XZ=     2.1592   YZ=     0.0969   ZZ=    22.1624
   Eigenvalues:    20.6465    23.2895    28.1031
 End of Minotr F.D. properties file   721 does not exist.
 End of Minotr F.D. properties file   722 does not exist.
 End of Minotr F.D. properties file   788 does not exist.

 **********************************************************************

            Population analysis using the SCF density.

 **********************************************************************

 Orbital symmetries:
       Occupied  (A) (A) (A) (A) (A) (A) (A) (A) (A) (A) (A) (A)
                 (A) (A) (A) (A) (A) (A) (A) (A) (A) (A) (A) (A)
                 (A) (A) (A) (A) (A) (A) (A) (A) (A) (A) (A) (A)
                 (A) (A) (A) (A) (A) (A) (A) (A) (A) (A) (A) (A)
                 (A) (A) (A) (A) (A) (A) (A) (A) (A) (A) (A) (A)
                 (A) (A) (A) (A) (A) (A) (A) (A) (A) (A) (A) (A)
                 (A) (A) (A) (A) (A) (A) (A) (A) (A) (A) (A) (A)
                 (A) (A) (A) (A) (A) (A) (A) (A) (A) (A) (A) (A)
                 (A) (A) (A) (A) (A) (A) (A) (A) (A) (A) (A) (A)
                 (A) (A) (A) (A) (A) (A) (A) (A) (A) (A) (A) (A)
                 (A) (A) (A) (A) (A) (A) (A) (A) (A) (A) (A) (A)
                 (A) (A) (A) (A) (A) (A) (A) (A) (A) (A) (A) (A)
                 (A) (A) (A) (A) (A) (A) (A) (A)
       Virtual   (A) (A) (A) (A) (A) (A) (A) (A) (A) (A) (A) (A)
                 (A) (A) (A) (A) (A) (A) (A) (A) (A) (A) (A) (A)
                 (A) (A) (A) (A) (A) (A) (A) (A) (A) (A) (A) (A)
                 (A) (A) (A) (A) (A) (A) (A) (A) (A) (A) (A) (A)
                 (A) (A) (A) (A) (A) (A) (A) (A) (A) (A) (A) (A)
                 (A) (A) (A) (A) (A) (A) (A) (A) (A) (A) (A) (A)
                 (A) (A) (A) (A) (A) (A) (A) (A) (A) (A) (A) (A)
                 (A) (A) (A) (A) (A) (A) (A) (A) (A) (A) (A) (A)
                 (A) (A) (A) (A) (A) (A) (A) (A) (A) (A) (A) (A)
                 (A) (A) (A) (A) (A) (A) (A) (A) (A) (A) (A) (A)
                 (A) (A) (A) (A) (A) (A) (A) (A) (A) (A) (A) (A)
                 (A) (A) (A) (A) (A) (A) (A) (A) (A) (A) (A) (A)
                 (A) (A) (A) (A) (A) (A) (A) (A) (A) (A) (A) (A)
                 (A) (A) (A) (A) (A) (A) (A) (A) (A) (A) (A) (A)
                 (A) (A) (A) (A) (A) (A) (A) (A) (A) (A) (A) (A)
                 (A) (A) (A) (A) (A) (A) (A) (A) (A) (A) (A) (A)
                 (A) (A) (A) (A) (A) (A) (A) (A) (A) (A) (A) (A)
                 (A) (A) (A) (A) (A) (A) (A) (A) (A) (A) (A) (A)
                 (A) (A) (A) (A) (A) (A) (A) (A) (A) (A) (A) (A)
                 (A) (A) (A) (A) (A) (A) (A) (A) (A) (A) (A) (A)
                 (A) (A) (A) (A) (A) (A) (A) (A) (A) (A) (A) (A)
                 (A) (A) (A) (A) (A) (A) (A) (A) (A) (A) (A) (A)
                 (A) (A) (A) (A) (A) (A) (A) (A) (A) (A) (A) (A)
                 (A) (A) (A) (A) (A) (A) (A) (A) (A) (A) (A) (A)
                 (A) (A) (A) (A) (A) (A) (A) (A) (A) (A) (A) (A)
                 (A) (A) (A) (A) (A) (A) (A) (A) (A) (A) (A) (A)
                 (A) (A) (A) (A) (A) (A) (A) (A) (A) (A) (A) (A)
                 (A) (A) (A) (A) (A) (A) (A) (A) (A) (A) (A) (A)
                 (A) (A) (A) (A) (A) (A) (A) (A) (A) (A) (A) (A)
                 (A) (A) (A) (A) (A) (A) (A) (A) (A) (A) (A) (A)
                 (A) (A) (A) (A) (A) (A) (A) (A) (A) (A) (A) (A)
                 (A) (A) (A) (A) (A) (A) (A) (A) (A) (A) (A) (A)
                 (A) (A) (A) (A) (A) (A) (A) (A) (A) (A) (A) (A)
                 (A) (A) (A) (A) (A) (A) (A) (A) (A) (A) (A) (A)
                 (A) (A) (A) (A) (A) (A) (A) (A) (A) (A) (A) (A)
                 (A) (A) (A) (A) (A) (A) (A) (A) (A) (A) (A) (A)
                 (A) (A) (A) (A) (A) (A) (A) (A) (A) (A) (A) (A)
                 (A) (A) (A) (A) (A) (A) (A) (A) (A) (A) (A) (A)
                 (A) (A) (A) (A) (A) (A) (A) (A) (A) (A) (A) (A)
                 (A) (A) (A) (A) (A) (A) (A) (A) (A) (A) (A) (A)
                 (A) (A) (A) (A) (A) (A) (A) (A) (A) (A) (A) (A)
                 (A) (A) (A) (A) (A) (A) (A) (A) (A) (A) (A) (A)
                 (A) (A) (A) (A) (A) (A) (A) (A) (A) (A) (A) (A)
                 (A) (A) (A) (A) (A) (A) (A) (A) (A) (A) (A) (A)
                 (A) (A) (A) (A) (A) (A) (A) (A) (A) (A) (A) (A)
                 (A) (A) (A) (A) (A) (A) (A) (A) (A) (A) (A) (A)
                 (A) (A) (A) (A) (A) (A) (A) (A) (A) (A) (A) (A)
                 (A) (A) (A) (A) (A) (A) (A) (A) (A) (A) (A) (A)
                 (A) (A) (A) (A) (A) (A) (A) (A) (A) (A) (A) (A)
                 (A) (A) (A) (A) (A) (A) (A) (A) (A) (A) (A) (A)
                 (A) (A) (A) (A) (A) (A) (A) (A) (A) (A) (A) (A)
                 (A) (A) (A) (A) (A) (A) (A) (A) (A) (A) (A) (A)
                 (A) (A) (A) (A) (A) (A) (A) (A) (A) (A) (A) (A)
                 (A) (A) (A) (A) (A) (A) (A) (A) (A) (A) (A) (A)
                 (A) (A) (A) (A) (A) (A) (A) (A) (A) (A) (A) (A)
                 (A) (A) (A) (A) (A) (A) (A) (A) (A) (A) (A) (A)
                 (A) (A) (A) (A) (A) (A) (A) (A) (A) (A) (A) (A)
                 (A) (A) (A) (A) (A) (A) (A) (A) (A) (A) (A) (A)
                 (A) (A) (A) (A) (A) (A) (A) (A) (A) (A) (A) (A)
                 (A) (A) (A) (A) (A) (A) (A) (A) (A) (A) (A) (A)
                 (A) (A) (A) (A) (A) (A) (A) (A) (A) (A) (A) (A)
                 (A) (A) (A) (A) (A) (A) (A) (A) (A) (A) (A) (A)
                 (A) (A) (A) (A) (A) (A) (A) (A) (A) (A) (A) (A)
                 (A) (A) (A) (A) (A) (A) (A) (A) (A) (A) (A) (A)
                 (A) (A) (A) (A) (A) (A) (A) (A) (A) (A) (A) (A)
                 (A) (A) (A) (A) (A) (A) (A) (A) (A) (A) (A) (A)
                 (A) (A) (A) (A) (A) (A) (A) (A) (A) (A) (A) (A)
                 (A) (A) (A) (A) (A) (A) (A) (A) (A) (A) (A) (A)
                 (A) (A) (A) (A) (A) (A) (A) (A) (A) (A) (A) (A)
                 (A) (A) (A) (A) (A) (A) (A) (A) (A) (A) (A) (A)
                 (A) (A) (A) (A) (A) (A) (A) (A) (A) (A) (A) (A)
                 (A) (A) (A) (A) (A) (A) (A) (A) (A) (A) (A) (A)
                 (A) (A) (A) (A) (A) (A) (A) (A) (A) (A) (A) (A)
                 (A) (A) (A) (A) (A) (A) (A) (A) (A) (A) (A) (A)
                 (A) (A) (A) (A) (A) (A) (A) (A) (A) (A) (A) (A)
                 (A) (A) (A) (A) (A) (A) (A) (A) (A) (A) (A) (A)
                 (A) (A) (A) (A) (A) (A) (A) (A) (A) (A) (A) (A)
                 (A) (A) (A) (A) (A) (A) (A) (A) (A) (A) (A) (A)
                 (A) (A) (A) (A) (A) (A) (A) (A) (A) (A) (A) (A)
                 (A) (A) (A) (A) (A) (A) (A) (A) (A) (A) (A) (A)
                 (A) (A) (A) (A) (A) (A) (A) (A) (A) (A) (A) (A)
                 (A) (A) (A) (A) (A) (A) (A) (A) (A) (A) (A) (A)
                 (A) (A) (A) (A) (A) (A) (A) (A) (A) (A) (A) (A)
                 (A) (A) (A) (A) (A) (A) (A) (A) (A) (A) (A) (A)
                 (A) (A) (A) (A) (A) (A) (A) (A) (A) (A) (A) (A)
                 (A) (A) (A) (A) (A) (A) (A) (A) (A) (A) (A) (A)
                 (A) (A) (A) (A) (A) (A) (A) (A) (A) (A) (A) (A)
                 (A) (A) (A) (A) (A) (A) (A) (A) (A) (A) (A) (A)
                 (A) (A) (A) (A) (A) (A) (A) (A) (A) (A) (A) (A)
                 (A) (A) (A) (A) (A) (A) (A) (A) (A) (A) (A) (A)
                 (A) (A) (A) (A) (A) (A) (A) (A) (A) (A) (A) (A)
                 (A) (A) (A) (A) (A) (A) (A) (A) (A) (A) (A) (A)
                 (A) (A) (A) (A) (A) (A) (A) (A) (A) (A) (A) (A)
                 (A) (A) (A) (A) (A) (A) (A) (A) (A) (A) (A) (A)
                 (A) (A) (A) (A) (A) (A) (A) (A) (A) (A) (A) (A)
                 (A) (A) (A) (A) (A) (A) (A) (A) (A) (A) (A) (A)
                 (A) (A) (A) (A) (A) (A) (A) (A) (A) (A) (A) (A)
                 (A) (A) (A) (A) (A) (A) (A) (A) (A) (A) (A) (A)
                 (A) (A) (A) (A) (A) (A) (A) (A) (A) (A) (A) (A)
                 (A) (A) (A) (A) (A) (A) (A) (A) (A) (A) (A) (A)
                 (A) (A) (A) (A) (A) (A) (A) (A) (A) (A) (A) (A)
                 (A) (A) (A) (A) (A) (A) (A) (A) (A) (A) (A) (A)
                 (A) (A) (A) (A) (A) (A) (A) (A) (A) (A) (A) (A)
                 (A) (A) (A) (A) (A) (A) (A) (A) (A) (A) (A) (A)
                 (A) (A) (A) (A) (A) (A) (A) (A) (A) (A) (A) (A)
                 (A) (A) (A) (A) (A) (A) (A) (A) (A) (A) (A) (A)
                 (A) (A) (A) (A) (A) (A) (A) (A) (A) (A) (A) (A)
                 (A) (A) (A) (A) (A) (A) (A) (A) (A) (A) (A) (A)
                 (A) (A) (A) (A) (A) (A) (A) (A) (A) (A) (A) (A)
                 (A) (A) (A) (A) (A) (A) (A) (A) (A) (A) (A) (A)
                 (A) (A) (A) (A) (A) (A) (A) (A) (A) (A) (A) (A)
                 (A) (A) (A) (A) (A) (A) (A) (A) (A) (A) (A) (A)
                 (A) (A) (A) (A) (A) (A) (A) (A) (A) (A)
 The electronic state is 1-A.
 Alpha  occ. eigenvalues --  -77.20243 -77.19764 -19.25135 -10.29703 -10.29649
 Alpha  occ. eigenvalues --  -10.26865 -10.24832 -10.24779 -10.24496 -10.24316
 Alpha  occ. eigenvalues --  -10.24284 -10.24259 -10.24175 -10.23946 -10.23785
 Alpha  occ. eigenvalues --  -10.23586 -10.23575 -10.23518 -10.23468 -10.23453
 Alpha  occ. eigenvalues --  -10.23400 -10.23399 -10.23375 -10.23328 -10.23289
 Alpha  occ. eigenvalues --  -10.23113 -10.23090 -10.22922 -10.22914 -10.22854
 Alpha  occ. eigenvalues --  -10.22736 -10.22595 -10.22533 -10.22491 -10.22405
 Alpha  occ. eigenvalues --  -10.22373 -10.22355 -10.22330 -10.22297 -10.22230
 Alpha  occ. eigenvalues --  -10.22211 -10.22181  -6.59791  -6.59318  -4.73409
 Alpha  occ. eigenvalues --   -4.73355  -4.72935  -4.72915  -4.72885  -4.72440
 Alpha  occ. eigenvalues --   -1.11969  -0.89492  -0.89257  -0.88187  -0.87803
 Alpha  occ. eigenvalues --   -0.87071  -0.86831  -0.84680  -0.79712  -0.78854
 Alpha  occ. eigenvalues --   -0.78330  -0.77227  -0.76896  -0.76579  -0.76300
 Alpha  occ. eigenvalues --   -0.76031  -0.75784  -0.75726  -0.75518  -0.74875
 Alpha  occ. eigenvalues --   -0.71667  -0.67500  -0.66792  -0.65374  -0.65265
 Alpha  occ. eigenvalues --   -0.62728  -0.62215  -0.61853  -0.61696  -0.61111
 Alpha  occ. eigenvalues --   -0.60970  -0.60788  -0.60477  -0.58141  -0.57524
 Alpha  occ. eigenvalues --   -0.56448  -0.55825  -0.52907  -0.52712  -0.51937
 Alpha  occ. eigenvalues --   -0.51320  -0.50723  -0.49677  -0.49222  -0.48079
 Alpha  occ. eigenvalues --   -0.47616  -0.46862  -0.46623  -0.46480  -0.46432
 Alpha  occ. eigenvalues --   -0.46221  -0.45840  -0.45697  -0.45546  -0.45448
 Alpha  occ. eigenvalues --   -0.45289  -0.43657  -0.43146  -0.42868  -0.42787
 Alpha  occ. eigenvalues --   -0.42590  -0.42383  -0.42059  -0.41687  -0.41469
 Alpha  occ. eigenvalues --   -0.40470  -0.40370  -0.39670  -0.39383  -0.39125
 Alpha  occ. eigenvalues --   -0.38699  -0.38494  -0.38176  -0.37916  -0.37628
 Alpha  occ. eigenvalues --   -0.37098  -0.36257  -0.36166  -0.35926  -0.35434
 Alpha  occ. eigenvalues --   -0.35230  -0.35213  -0.34788  -0.34598  -0.33410
 Alpha  occ. eigenvalues --   -0.33156  -0.33004  -0.32113  -0.29719  -0.28159
 Alpha  occ. eigenvalues --   -0.27594  -0.27292  -0.26927  -0.26825  -0.26465
 Alpha  occ. eigenvalues --   -0.26396  -0.25840  -0.25282  -0.24885  -0.24232
 Alpha  occ. eigenvalues --   -0.22394  -0.19810
 Alpha virt. eigenvalues --   -0.04089  -0.02891  -0.02388  -0.01896  -0.01741
 Alpha virt. eigenvalues --   -0.01472  -0.01226  -0.00924  -0.00684  -0.00207
 Alpha virt. eigenvalues --    0.00235   0.00621   0.03942   0.04204   0.05067
 Alpha virt. eigenvalues --    0.05580   0.06070   0.06107   0.06567   0.07253
 Alpha virt. eigenvalues --    0.07471   0.07707   0.07950   0.08215   0.08551
 Alpha virt. eigenvalues --    0.08937   0.09175   0.09467   0.09971   0.10113
 Alpha virt. eigenvalues --    0.10169   0.10401   0.11049   0.11101   0.11138
 Alpha virt. eigenvalues --    0.11281   0.11606   0.11826   0.12134   0.12492
 Alpha virt. eigenvalues --    0.12720   0.12949   0.13055   0.13294   0.13563
 Alpha virt. eigenvalues --    0.13731   0.13907   0.14061   0.14537   0.14649
 Alpha virt. eigenvalues --    0.15114   0.15283   0.15803   0.15925   0.16239
 Alpha virt. eigenvalues --    0.16531   0.16768   0.17098   0.17632   0.18148
 Alpha virt. eigenvalues --    0.18569   0.18618   0.18787   0.19212   0.19361
 Alpha virt. eigenvalues --    0.19954   0.20258   0.20577   0.20771   0.21471
 Alpha virt. eigenvalues --    0.21591   0.21875   0.22105   0.22227   0.22389
 Alpha virt. eigenvalues --    0.22600   0.23029   0.23209   0.23260   0.23497
 Alpha virt. eigenvalues --    0.23781   0.23853   0.24039   0.24168   0.24466
 Alpha virt. eigenvalues --    0.24619   0.25043   0.25098   0.25224   0.25400
 Alpha virt. eigenvalues --    0.25572   0.25976   0.26140   0.26316   0.26663
 Alpha virt. eigenvalues --    0.27041   0.27235   0.27418   0.27545   0.27810
 Alpha virt. eigenvalues --    0.27998   0.28417   0.28586   0.28768   0.28945
 Alpha virt. eigenvalues --    0.29002   0.29264   0.29719   0.29970   0.30093
 Alpha virt. eigenvalues --    0.30484   0.30802   0.31044   0.31554   0.31785
 Alpha virt. eigenvalues --    0.31854   0.32187   0.32328   0.32682   0.32894
 Alpha virt. eigenvalues --    0.33374   0.33541   0.33882   0.34178   0.34388
 Alpha virt. eigenvalues --    0.34549   0.35165   0.35296   0.35506   0.35703
 Alpha virt. eigenvalues --    0.35962   0.36150   0.36322   0.36540   0.36675
 Alpha virt. eigenvalues --    0.37062   0.37173   0.37462   0.37678   0.37964
 Alpha virt. eigenvalues --    0.38024   0.38291   0.38676   0.39031   0.39265
 Alpha virt. eigenvalues --    0.39615   0.39739   0.39970   0.40027   0.40217
 Alpha virt. eigenvalues --    0.40370   0.40808   0.41007   0.41077   0.41412
 Alpha virt. eigenvalues --    0.41488   0.41684   0.41992   0.42286   0.42470
 Alpha virt. eigenvalues --    0.42716   0.42814   0.43300   0.43344   0.43459
 Alpha virt. eigenvalues --    0.43621   0.43779   0.43812   0.44009   0.44094
 Alpha virt. eigenvalues --    0.44469   0.44695   0.44817   0.44994   0.45316
 Alpha virt. eigenvalues --    0.45438   0.45529   0.45642   0.45965   0.46054
 Alpha virt. eigenvalues --    0.46164   0.46478   0.46734   0.46933   0.47073
 Alpha virt. eigenvalues --    0.47345   0.47491   0.47762   0.47987   0.48287
 Alpha virt. eigenvalues --    0.48493   0.48706   0.49061   0.49326   0.49549
 Alpha virt. eigenvalues --    0.49628   0.49882   0.50133   0.50372   0.50616
 Alpha virt. eigenvalues --    0.50845   0.51015   0.51394   0.51615   0.51741
 Alpha virt. eigenvalues --    0.52175   0.52489   0.52733   0.53139   0.53403
 Alpha virt. eigenvalues --    0.53706   0.53804   0.53978   0.54258   0.54397
 Alpha virt. eigenvalues --    0.54777   0.55136   0.55432   0.55674   0.55939
 Alpha virt. eigenvalues --    0.56315   0.56878   0.57201   0.57323   0.57544
 Alpha virt. eigenvalues --    0.58124   0.58479   0.58798   0.59233   0.59743
 Alpha virt. eigenvalues --    0.60032   0.60277   0.60554   0.60893   0.61219
 Alpha virt. eigenvalues --    0.61459   0.61803   0.61943   0.62334   0.63276
 Alpha virt. eigenvalues --    0.63842   0.64107   0.64401   0.64658   0.64958
 Alpha virt. eigenvalues --    0.64966   0.65464   0.65786   0.66296   0.66449
 Alpha virt. eigenvalues --    0.66728   0.66833   0.67270   0.67425   0.67602
 Alpha virt. eigenvalues --    0.68100   0.68445   0.68939   0.68985   0.69319
 Alpha virt. eigenvalues --    0.69766   0.69887   0.70042   0.70541   0.70724
 Alpha virt. eigenvalues --    0.70983   0.71140   0.71317   0.71718   0.71933
 Alpha virt. eigenvalues --    0.72271   0.72579   0.72670   0.72837   0.73067
 Alpha virt. eigenvalues --    0.73213   0.73394   0.73587   0.74087   0.74230
 Alpha virt. eigenvalues --    0.74773   0.74980   0.75511   0.75761   0.75793
 Alpha virt. eigenvalues --    0.76336   0.76723   0.77038   0.77273   0.77529
 Alpha virt. eigenvalues --    0.77618   0.78166   0.78590   0.78843   0.79218
 Alpha virt. eigenvalues --    0.79367   0.79850   0.80047   0.80492   0.80774
 Alpha virt. eigenvalues --    0.81050   0.81523   0.81843   0.82218   0.82266
 Alpha virt. eigenvalues --    0.82991   0.83129   0.83251   0.83529   0.84058
 Alpha virt. eigenvalues --    0.84506   0.84786   0.84985   0.85766   0.85909
 Alpha virt. eigenvalues --    0.86358   0.86527   0.86631   0.86798   0.87294
 Alpha virt. eigenvalues --    0.87720   0.87742   0.88236   0.88437   0.89518
 Alpha virt. eigenvalues --    0.89671   0.90000   0.90524   0.90839   0.91252
 Alpha virt. eigenvalues --    0.91290   0.91950   0.92149   0.92727   0.93070
 Alpha virt. eigenvalues --    0.93311   0.93486   0.93935   0.94409   0.94558
 Alpha virt. eigenvalues --    0.94964   0.95533   0.95901   0.96084   0.96378
 Alpha virt. eigenvalues --    0.96933   0.97075   0.97317   0.97662   0.97849
 Alpha virt. eigenvalues --    0.98505   0.98800   0.99125   0.99244   0.99942
 Alpha virt. eigenvalues --    1.00333   1.00535   1.01351   1.02201   1.02645
 Alpha virt. eigenvalues --    1.03044   1.03166   1.04023   1.04082   1.04470
 Alpha virt. eigenvalues --    1.04889   1.05619   1.05902   1.06127   1.06572
 Alpha virt. eigenvalues --    1.06979   1.07629   1.07816   1.08392   1.09221
 Alpha virt. eigenvalues --    1.09810   1.10297   1.10717   1.10798   1.11008
 Alpha virt. eigenvalues --    1.11469   1.11804   1.11950   1.12449   1.12780
 Alpha virt. eigenvalues --    1.12999   1.13172   1.13578   1.13883   1.14025
 Alpha virt. eigenvalues --    1.14968   1.15359   1.15696   1.16385   1.16619
 Alpha virt. eigenvalues --    1.17104   1.17317   1.17582   1.18195   1.18783
 Alpha virt. eigenvalues --    1.18979   1.19334   1.19503   1.19789   1.20310
 Alpha virt. eigenvalues --    1.20556   1.20904   1.21600   1.21928   1.22082
 Alpha virt. eigenvalues --    1.22625   1.22660   1.23150   1.23275   1.23687
 Alpha virt. eigenvalues --    1.24185   1.24379   1.24656   1.24946   1.25166
 Alpha virt. eigenvalues --    1.25485   1.26195   1.26469   1.26693   1.26906
 Alpha virt. eigenvalues --    1.27269   1.27663   1.28053   1.28347   1.28469
 Alpha virt. eigenvalues --    1.28605   1.28970   1.29293   1.29353   1.29633
 Alpha virt. eigenvalues --    1.29971   1.30665   1.31079   1.31178   1.31729
 Alpha virt. eigenvalues --    1.31982   1.32321   1.32514   1.33079   1.33181
 Alpha virt. eigenvalues --    1.33812   1.33904   1.34269   1.34782   1.35029
 Alpha virt. eigenvalues --    1.35437   1.35713   1.36138   1.36995   1.37266
 Alpha virt. eigenvalues --    1.37971   1.38282   1.38823   1.39578   1.39863
 Alpha virt. eigenvalues --    1.40353   1.41029   1.41038   1.41708   1.42078
 Alpha virt. eigenvalues --    1.42661   1.43064   1.43554   1.43859   1.44621
 Alpha virt. eigenvalues --    1.44945   1.45324   1.45556   1.45768   1.46452
 Alpha virt. eigenvalues --    1.46686   1.47484   1.47944   1.48259   1.48579
 Alpha virt. eigenvalues --    1.48847   1.49038   1.49424   1.49829   1.50245
 Alpha virt. eigenvalues --    1.50685   1.51041   1.51257   1.51893   1.52396
 Alpha virt. eigenvalues --    1.52576   1.53309   1.53378   1.53599   1.54166
 Alpha virt. eigenvalues --    1.54589   1.55192   1.55493   1.55750   1.55810
 Alpha virt. eigenvalues --    1.56095   1.56551   1.56735   1.57135   1.57188
 Alpha virt. eigenvalues --    1.57706   1.57965   1.58124   1.58272   1.58592
 Alpha virt. eigenvalues --    1.58892   1.59336   1.59569   1.60218   1.60821
 Alpha virt. eigenvalues --    1.61315   1.61495   1.61811   1.62158   1.62348
 Alpha virt. eigenvalues --    1.62896   1.63103   1.63498   1.63833   1.64061
 Alpha virt. eigenvalues --    1.64746   1.65117   1.65266   1.65407   1.65670
 Alpha virt. eigenvalues --    1.65899   1.66174   1.66662   1.67051   1.67332
 Alpha virt. eigenvalues --    1.67665   1.67796   1.67875   1.68204   1.68680
 Alpha virt. eigenvalues --    1.68974   1.69186   1.69803   1.69999   1.70635
 Alpha virt. eigenvalues --    1.70763   1.71131   1.71402   1.71618   1.72072
 Alpha virt. eigenvalues --    1.72216   1.72750   1.72841   1.72941   1.73156
 Alpha virt. eigenvalues --    1.73688   1.73981   1.74257   1.74574   1.74676
 Alpha virt. eigenvalues --    1.74958   1.75392   1.75517   1.76046   1.76356
 Alpha virt. eigenvalues --    1.77091   1.77327   1.78040   1.78341   1.78670
 Alpha virt. eigenvalues --    1.79321   1.79648   1.79972   1.80363   1.80867
 Alpha virt. eigenvalues --    1.81113   1.81408   1.82152   1.82799   1.83086
 Alpha virt. eigenvalues --    1.83287   1.83725   1.84343   1.84627   1.85247
 Alpha virt. eigenvalues --    1.85323   1.85963   1.86072   1.86702   1.87422
 Alpha virt. eigenvalues --    1.87816   1.88294   1.88620   1.88939   1.89249
 Alpha virt. eigenvalues --    1.90094   1.90423   1.90815   1.91427   1.91724
 Alpha virt. eigenvalues --    1.92816   1.93006   1.93765   1.94001   1.94252
 Alpha virt. eigenvalues --    1.94654   1.95390   1.95777   1.96078   1.96547
 Alpha virt. eigenvalues --    1.97360   1.97798   1.98665   1.99053   1.99684
 Alpha virt. eigenvalues --    2.00024   2.00274   2.00881   2.01075   2.01377
 Alpha virt. eigenvalues --    2.02652   2.03313   2.03506   2.04255   2.04321
 Alpha virt. eigenvalues --    2.04789   2.05314   2.05480   2.06185   2.06462
 Alpha virt. eigenvalues --    2.07227   2.07635   2.07929   2.09148   2.09194
 Alpha virt. eigenvalues --    2.09428   2.09807   2.10346   2.10947   2.11138
 Alpha virt. eigenvalues --    2.11734   2.12368   2.12717   2.12793   2.13352
 Alpha virt. eigenvalues --    2.13633   2.13970   2.14236   2.14839   2.15026
 Alpha virt. eigenvalues --    2.15361   2.15652   2.16291   2.16422   2.16715
 Alpha virt. eigenvalues --    2.17339   2.17696   2.17911   2.18445   2.18877
 Alpha virt. eigenvalues --    2.19356   2.19505   2.19795   2.19970   2.20507
 Alpha virt. eigenvalues --    2.21015   2.21133   2.21791   2.22105   2.22303
 Alpha virt. eigenvalues --    2.23200   2.23962   2.24078   2.24648   2.25239
 Alpha virt. eigenvalues --    2.25729   2.25838   2.26667   2.27083   2.27516
 Alpha virt. eigenvalues --    2.27869   2.28316   2.28642   2.29179   2.29580
 Alpha virt. eigenvalues --    2.29926   2.30408   2.30937   2.32091   2.32468
 Alpha virt. eigenvalues --    2.33192   2.34207   2.34454   2.35426   2.36000
 Alpha virt. eigenvalues --    2.37026   2.37935   2.38154   2.39138   2.39923
 Alpha virt. eigenvalues --    2.40550   2.40853   2.41264   2.42120   2.42589
 Alpha virt. eigenvalues --    2.42800   2.43703   2.43764   2.44018   2.44659
 Alpha virt. eigenvalues --    2.45316   2.45509   2.45925   2.46513   2.46934
 Alpha virt. eigenvalues --    2.47438   2.47924   2.48271   2.48892   2.49407
 Alpha virt. eigenvalues --    2.49980   2.50141   2.50431   2.51260   2.52072
 Alpha virt. eigenvalues --    2.52222   2.52914   2.53094   2.53495   2.54244
 Alpha virt. eigenvalues --    2.54538   2.55257   2.55751   2.56034   2.56650
 Alpha virt. eigenvalues --    2.56926   2.57599   2.58437   2.58717   2.59330
 Alpha virt. eigenvalues --    2.59545   2.60081   2.60281   2.60476   2.60689
 Alpha virt. eigenvalues --    2.60908   2.61120   2.61612   2.62118   2.62681
 Alpha virt. eigenvalues --    2.62782   2.62877   2.63450   2.63658   2.63915
 Alpha virt. eigenvalues --    2.64341   2.64510   2.65113   2.65283   2.65339
 Alpha virt. eigenvalues --    2.65623   2.65745   2.65943   2.66566   2.66653
 Alpha virt. eigenvalues --    2.66833   2.67266   2.67403   2.67690   2.68159
 Alpha virt. eigenvalues --    2.68287   2.68646   2.68811   2.68977   2.69285
 Alpha virt. eigenvalues --    2.69548   2.70115   2.70618   2.71196   2.71239
 Alpha virt. eigenvalues --    2.71486   2.71672   2.71852   2.72292   2.72762
 Alpha virt. eigenvalues --    2.72842   2.73246   2.73324   2.73809   2.74265
 Alpha virt. eigenvalues --    2.74434   2.74843   2.75290   2.75529   2.75968
 Alpha virt. eigenvalues --    2.76308   2.76473   2.76877   2.77013   2.77421
 Alpha virt. eigenvalues --    2.77779   2.77956   2.78173   2.78565   2.78912
 Alpha virt. eigenvalues --    2.79256   2.79375   2.79447   2.79869   2.80274
 Alpha virt. eigenvalues --    2.80603   2.80897   2.81094   2.81234   2.81925
 Alpha virt. eigenvalues --    2.82110   2.82531   2.83032   2.83246   2.83477
 Alpha virt. eigenvalues --    2.83724   2.84172   2.84670   2.84856   2.85482
 Alpha virt. eigenvalues --    2.85555   2.85599   2.85836   2.86130   2.86589
 Alpha virt. eigenvalues --    2.86810   2.87092   2.87462   2.87571   2.87872
 Alpha virt. eigenvalues --    2.88150   2.88828   2.89174   2.89383   2.89656
 Alpha virt. eigenvalues --    2.90054   2.90532   2.90893   2.90986   2.91297
 Alpha virt. eigenvalues --    2.91986   2.92247   2.92512   2.92922   2.93083
 Alpha virt. eigenvalues --    2.93538   2.93762   2.94124   2.94441   2.94611
 Alpha virt. eigenvalues --    2.94780   2.95261   2.96108   2.96277   2.97077
 Alpha virt. eigenvalues --    2.97736   2.98140   2.98329   2.99027   2.99547
 Alpha virt. eigenvalues --    2.99900   3.00267   3.00851   3.01755   3.02450
 Alpha virt. eigenvalues --    3.02936   3.03212   3.04087   3.04887   3.05089
 Alpha virt. eigenvalues --    3.05317   3.05911   3.06742   3.06987   3.07305
 Alpha virt. eigenvalues --    3.07647   3.07918   3.08503   3.08668   3.09305
 Alpha virt. eigenvalues --    3.09726   3.10276   3.10718   3.11192   3.11583
 Alpha virt. eigenvalues --    3.12166   3.12569   3.13260   3.13529   3.13819
 Alpha virt. eigenvalues --    3.14136   3.14193   3.14521   3.14695   3.14980
 Alpha virt. eigenvalues --    3.15438   3.15574   3.16121   3.16433   3.16841
 Alpha virt. eigenvalues --    3.17273   3.17365   3.17403   3.17971   3.18334
 Alpha virt. eigenvalues --    3.18567   3.18893   3.19040   3.19353   3.19793
 Alpha virt. eigenvalues --    3.20015   3.20293   3.20482   3.20963   3.21199
 Alpha virt. eigenvalues --    3.21731   3.22005   3.22461   3.22604   3.22736
 Alpha virt. eigenvalues --    3.23452   3.23638   3.23871   3.24444   3.24573
 Alpha virt. eigenvalues --    3.25006   3.25078   3.25424   3.25799   3.25998
 Alpha virt. eigenvalues --    3.26338   3.26682   3.27127   3.27496   3.28021
 Alpha virt. eigenvalues --    3.28438   3.29187   3.29301   3.29509   3.29796
 Alpha virt. eigenvalues --    3.29935   3.30400   3.30911   3.31119   3.31414
 Alpha virt. eigenvalues --    3.32014   3.32102   3.32215   3.32707   3.33116
 Alpha virt. eigenvalues --    3.33531   3.33831   3.34139   3.34154   3.34518
 Alpha virt. eigenvalues --    3.34689   3.34826   3.35223   3.35601   3.36003
 Alpha virt. eigenvalues --    3.36335   3.36382   3.36571   3.37109   3.37456
 Alpha virt. eigenvalues --    3.37768   3.37886   3.38147   3.38199   3.38766
 Alpha virt. eigenvalues --    3.39008   3.39106   3.39682   3.39948   3.40048
 Alpha virt. eigenvalues --    3.40321   3.40643   3.41181   3.41272   3.41404
 Alpha virt. eigenvalues --    3.41733   3.42240   3.42552   3.42827   3.43144
 Alpha virt. eigenvalues --    3.43255   3.43367   3.43895   3.43990   3.44331
 Alpha virt. eigenvalues --    3.44765   3.44891   3.45168   3.45433   3.45911
 Alpha virt. eigenvalues --    3.46194   3.46448   3.46850   3.47124   3.47516
 Alpha virt. eigenvalues --    3.47942   3.48129   3.48461   3.48684   3.48805
 Alpha virt. eigenvalues --    3.49103   3.49665   3.49916   3.50142   3.50631
 Alpha virt. eigenvalues --    3.50966   3.51805   3.51998   3.52190   3.52861
 Alpha virt. eigenvalues --    3.53064   3.53363   3.53427   3.53964   3.54044
 Alpha virt. eigenvalues --    3.54238   3.54330   3.54660   3.54981   3.55183
 Alpha virt. eigenvalues --    3.55510   3.55684   3.56051   3.56207   3.56573
 Alpha virt. eigenvalues --    3.56692   3.57230   3.57595   3.58003   3.58092
 Alpha virt. eigenvalues --    3.58557   3.58696   3.59369   3.59488   3.59618
 Alpha virt. eigenvalues --    3.60345   3.61267   3.61627   3.61944   3.62397
 Alpha virt. eigenvalues --    3.62583   3.64161   3.64483   3.64957   3.65387
 Alpha virt. eigenvalues --    3.65745   3.66274   3.67771   3.68128   3.69097
 Alpha virt. eigenvalues --    3.70173   3.70573   3.70752   3.71479   3.71714
 Alpha virt. eigenvalues --    3.71963   3.72204   3.72916   3.73584   3.74298
 Alpha virt. eigenvalues --    3.74960   3.75710   3.75793   3.76143   3.76376
 Alpha virt. eigenvalues --    3.76682   3.77292   3.77630   3.77993   3.78749
 Alpha virt. eigenvalues --    3.79155   3.79515   3.80162   3.80659   3.81672
 Alpha virt. eigenvalues --    3.82478   3.83195   3.84664   3.86460   3.87744
 Alpha virt. eigenvalues --    3.88777   3.90038   3.90797   3.91577   3.93039
 Alpha virt. eigenvalues --    3.94019   3.94830   3.94928   3.95998   3.96178
 Alpha virt. eigenvalues --    3.96308   3.96750   3.97434   3.98162   3.99149
 Alpha virt. eigenvalues --    3.99602   4.00706   4.01740   4.02326   4.03043
 Alpha virt. eigenvalues --    4.03567   4.04115   4.04947   4.05268   4.05443
 Alpha virt. eigenvalues --    4.05804   4.06479   4.06772   4.07364   4.08066
 Alpha virt. eigenvalues --    4.08644   4.08985   4.09441   4.11248   4.11605
 Alpha virt. eigenvalues --    4.11799   4.12015   4.12416   4.13206   4.13479
 Alpha virt. eigenvalues --    4.13768   4.14291   4.14649   4.15003   4.15703
 Alpha virt. eigenvalues --    4.15955   4.16932   4.17468   4.17634   4.18600
 Alpha virt. eigenvalues --    4.19198   4.19297   4.19548   4.20130   4.20382
 Alpha virt. eigenvalues --    4.20657   4.20882   4.21225   4.21290   4.21463
 Alpha virt. eigenvalues --    4.21938   4.22005   4.22220   4.22513   4.23114
 Alpha virt. eigenvalues --    4.23203   4.23744   4.24153   4.24326   4.24607
 Alpha virt. eigenvalues --    4.24671   4.25112   4.25336   4.25820   4.26349
 Alpha virt. eigenvalues --    4.26676   4.26963   4.27289   4.27833   4.28140
 Alpha virt. eigenvalues --    4.28613   4.28775   4.29361   4.30173   4.31149
 Alpha virt. eigenvalues --    4.31385   4.31894   4.32058   4.32450   4.33482
 Alpha virt. eigenvalues --    4.34115   4.34716   4.35029   4.35419   4.36245
 Alpha virt. eigenvalues --    4.36957   4.37463   4.37687   4.38620   4.39158
 Alpha virt. eigenvalues --    4.39549   4.40849   4.41219   4.41921   4.43245
 Alpha virt. eigenvalues --    4.43489   4.44469   4.45332   4.46057   4.49325
 Alpha virt. eigenvalues --    4.49621   4.53020   4.55635   4.56131   4.56535
 Alpha virt. eigenvalues --    4.61346   4.61751   4.62353   4.62577   4.62806
 Alpha virt. eigenvalues --    4.63249   4.63767   4.63912   4.64268   4.64627
 Alpha virt. eigenvalues --    4.65471   4.66072   4.66490   4.67511   4.68312
 Alpha virt. eigenvalues --    4.68797   4.69746   4.71029   4.72362   4.73023
 Alpha virt. eigenvalues --    4.73531   4.74708   4.75096   4.75708   4.77354
 Alpha virt. eigenvalues --    4.78301   4.78931   4.79064   4.84130   4.85170
 Alpha virt. eigenvalues --    4.85641   4.86156   4.87295   4.89197   4.89712
 Alpha virt. eigenvalues --    4.91748   4.92447   4.93632   4.94206   4.94491
 Alpha virt. eigenvalues --    4.95387   4.96061   4.96892   4.97550   4.98216
 Alpha virt. eigenvalues --    4.98868   4.99433   5.00996   5.01318   5.05465
 Alpha virt. eigenvalues --    5.07872   5.10315   5.11020   5.12113   5.13984
 Alpha virt. eigenvalues --    5.14235   5.14473   5.14876   5.15401   5.15492
 Alpha virt. eigenvalues --    5.16102   5.16517   5.18630   5.22310   5.22840
 Alpha virt. eigenvalues --    5.26744   5.27599   5.29094   5.29555   5.34796
 Alpha virt. eigenvalues --    5.35324   5.35597   5.36016   5.36266   5.37055
 Alpha virt. eigenvalues --    5.39953   5.41536   5.42675   5.43090   5.45418
 Alpha virt. eigenvalues --    5.47346   5.50291   5.53207   5.57954   5.58366
 Alpha virt. eigenvalues --    5.59013   5.59142   5.60811   5.61110   5.65317
 Alpha virt. eigenvalues --    5.74770   6.04038   6.08282   6.22106   6.37524
 Alpha virt. eigenvalues --    6.55036   6.84175   6.92552   7.09336   7.40481
 Alpha virt. eigenvalues --    7.45878   7.82807   7.86319   8.00092   8.02983
 Alpha virt. eigenvalues --    8.07600   8.13109  16.03485  16.06113  22.13120
 Alpha virt. eigenvalues --   22.17535  22.22257  22.37393  22.44121  22.48513
 Alpha virt. eigenvalues --   22.49031  22.56271  22.61919  22.62567  22.63688
 Alpha virt. eigenvalues --   22.63936  22.66065  22.67713  22.68197  22.69772
 Alpha virt. eigenvalues --   22.72191  22.73303  22.75622  22.76014  22.78675
 Alpha virt. eigenvalues --   22.80374  22.80584  22.80949  22.82579  22.83768
 Alpha virt. eigenvalues --   22.87210  22.92497  22.96276  22.97471  23.00899
 Alpha virt. eigenvalues --   23.02536  23.05835  23.13492  23.16636  23.17491
 Alpha virt. eigenvalues --   23.18852  23.40804  23.55795  44.61240
          Condensed to atoms (all electrons):
 Mulliken charges:
               1
     1  P    0.118326
     2  C   -0.195193
     3  C   -0.170048
     4  C   -0.151597
     5  C   -0.191898
     6  C    0.013122
     7  C    0.227390
     8  O   -0.236322
     9  C    0.274348
    10  C   -0.450004
    11  C   -0.410859
    12  C   -0.060690
    13  C   -0.077190
    14  C   -0.209606
    15  C   -0.069023
    16  C   -0.124650
    17  C   -0.049220
    18  C    0.120822
    19  C   -0.229267
    20  C   -0.122938
    21  C   -0.109046
    22  C   -0.138537
    23  C   -0.187252
    24  H    0.169261
    25  H    0.117997
    26  H    0.117111
    27  H    0.153420
    28  H    0.134552
    29  H    0.155091
    30  H    0.126897
    31  H    0.124784
    32  H    0.114236
    33  H    0.114487
    34  H    0.147974
    35  H    0.124852
    36  H    0.112292
    37  H    0.112357
    38  H    0.108868
    39  H    0.121469
    40  P    0.128601
    41  C   -0.153811
    42  C   -0.152026
    43  C   -0.173042
    44  C   -0.162416
    45  C    0.001500
    46  C    0.184040
    47  C   -0.027572
    48  C   -0.112961
    49  C   -0.225253
    50  C   -0.077829
    51  C   -0.172150
    52  C   -0.005768
    53  C    0.105666
    54  C   -0.262424
    55  C   -0.125239
    56  C   -0.087168
    57  C   -0.137707
    58  C   -0.202545
    59  H    0.174595
    60  H    0.121042
    61  H    0.115829
    62  H    0.135408
    63  H    0.126676
    64  H    0.137782
    65  H    0.164376
    66  H    0.142439
    67  H    0.109217
    68  H    0.107804
    69  H    0.103896
    70  H    0.122239
    71  H    0.116997
    72  H    0.118420
    73  H    0.119584
    74  H    0.115483
 Sum of Mulliken charges =  -0.00000
 Mulliken charges with hydrogens summed into heavy atoms:
               1
     1  P    0.118326
     2  C   -0.195193
     3  C   -0.000787
     4  C   -0.034486
     5  C   -0.073901
     6  C    0.013122
     7  C    0.227390
     8  O   -0.236322
     9  C    0.274348
    10  C   -0.026624
    11  C   -0.002195
    12  C   -0.060690
    13  C    0.047662
    14  C   -0.097314
    15  C    0.043333
    16  C   -0.015782
    17  C    0.072249
    18  C    0.120822
    19  C   -0.104483
    20  C   -0.008702
    21  C    0.006437
    22  C   -0.024050
    23  C   -0.039278
    40  P    0.128601
    41  C   -0.153811
    42  C    0.022569
    43  C   -0.057213
    44  C   -0.041374
    45  C    0.001500
    46  C    0.184040
    47  C   -0.027572
    48  C    0.029478
    49  C   -0.116036
    50  C    0.029975
    51  C   -0.068254
    52  C    0.116471
    53  C    0.105666
    54  C   -0.124642
    55  C   -0.006819
    56  C    0.032416
    57  C   -0.020711
    58  C   -0.038169
 Electronic spatial extent (au):  <R**2>=          20940.9732
 Charge=             -0.0000 electrons
 Dipole moment (field-independent basis, Debye):
    X=              0.4824    Y=              1.6446    Z=              2.4197  Tot=              2.9652
 Quadrupole moment (field-independent basis, Debye-Ang):
   XX=           -242.2840   YY=           -230.8199   ZZ=           -256.2713
   XY=             -5.8319   XZ=             -5.1071   YZ=              0.9756
 Traceless Quadrupole moment (field-independent basis, Debye-Ang):
   XX=              0.8411   YY=             12.3051   ZZ=            -13.1462
   XY=             -5.8319   XZ=             -5.1071   YZ=              0.9756
 Octapole moment (field-independent basis, Debye-Ang**2):
  XXX=             26.6621  YYY=             40.6201  ZZZ=             55.1692  XYY=             20.3672
  XXY=              0.3368  XXZ=            -47.0592  XZZ=            -11.9193  YZZ=            -13.8677
  YYZ=             26.5229  XYZ=             14.3089
 Hexadecapole moment (field-independent basis, Debye-Ang**3):
 XXXX=         -13453.4745 YYYY=          -9792.9146 ZZZZ=          -4816.7661 XXXY=             25.7080
 XXXZ=           -108.9998 YYYX=           -115.7187 YYYZ=             81.7468 ZZZX=            -12.6418
 ZZZY=           -173.4446 XXYY=          -3878.7657 XXZZ=          -3044.8497 YYZZ=          -2459.8649
 XXYZ=            173.1669 YYXZ=            -33.4042 ZZXY=            -95.1373
 N-N= 5.295999186105D+03 E-N=-1.588417228258D+04  KE= 2.251113308820D+03
 1\1\GINC-NC259\SP\RPBE1PBE\def2TZVP\C39H32O1P2\WALROTHR\12-Feb-2022\0\
 \# PBE1PBE/def2TZVP int=(grid=ultrafine) empiricaldispersion=GD3BJ nmr
 =giao\\XantPhos_4 title\\0,1\P,0,-1.5206408158,1.6502749746,-3.5842421
 286\C,0,-2.074826096,2.1770095467,-1.8950816509\C,0,-3.4322727012,2.41
 11183148,-1.5853797746\C,0,-3.8291236995,2.6425136621,-0.2626929331\C,
 0,-2.8859482041,2.6495712113,0.7789754212\C,0,-1.5213820951,2.47640357
 02,0.5079630714\C,0,-1.15525806,2.2713899418,-0.834888851\O,0,0.184302
 0362,2.1372509519,-1.1336933083\C,0,-0.3790502385,2.5224495384,1.53846
 61051\C,0,-0.8877367038,2.2959569995,2.9696620545\C,0,0.3030796228,3.9
 185610478,1.4529401271\C,0,-2.1478464108,-0.0686052265,-3.7856687333\C
 ,0,-3.2909221393,-0.5626545902,-3.1311646684\C,0,-3.7728103978,-1.8424
 543991,-3.4328461564\C,0,-3.122101332,-2.6348067937,-4.3897426123\C,0,
 -1.9802706201,-2.1487389737,-5.0417092228\C,0,-1.4905234632,-0.8729627
 263,-4.736800439\C,0,-2.6825795215,2.5885193868,-4.6603132146\C,0,-2.8
 781140795,3.9669855553,-4.4342852187\C,0,-4.449070022,4.052752746,-6.2
 862499982\C,0,-3.7654260753,4.6890888958,-5.2392372734\C,0,-4.24575852
 78,2.6872714483,-6.5226123622\C,0,-3.3681252904,1.9536585301,-5.711855
 9525\H,0,-4.1735681638,2.4087697906,-2.3904015732\H,0,-3.2234839899,2.
 8087595944,1.8072783471\H,0,-4.8861460262,2.8133995287,-0.0370047554\H
 ,0,-1.3851431788,1.31737024,3.0792456091\H,0,-1.6010361669,3.086194846
 1,3.2557346871\H,0,0.6848994519,4.1184572237,0.4392069981\H,0,-0.42148
 46369,4.7084567379,1.7149553156\H,0,-2.3308850146,4.4713598533,-3.6341
 880485\H,0,-5.1367877677,4.6232466556,-6.9190153813\H,0,-4.7745127666,
 2.1835981387,-7.3383724947\H,0,-3.2243855676,0.8855666829,-5.897830054
 8\H,0,-3.8009431821,0.0474531506,-2.38005228\H,0,-4.6606547747,-2.2228
 987031,-2.916727442\H,0,-3.4996819217,-3.6361536116,-4.6205395399\H,0,
 -1.4575739584,-2.7701358073,-5.7753377974\H,0,-0.5891811748,-0.4870779
 882,-5.2273292805\P,0,1.6489358451,0.0755364079,-2.6518001677\C,0,1.74
 51506276,0.3660665661,-0.8277325051\C,0,2.3971589535,-0.5098395904,0.0
 653470861\C,0,2.2113485069,-0.3821277556,1.4467772993\C,0,1.3321016205
 ,0.5818716105,1.9680661382\C,0,0.6426304261,1.4538192053,1.1141786013\
 C,0,0.8938374557,1.3309281122,-0.2638509105\C,0,0.8202651959,-1.585973
 1356,-2.5835037314\C,0,1.2825503671,-2.6920370746,-3.3210193905\C,0,0.
 6325325658,-3.930621012,-3.222029805\C,0,-0.4845153821,-4.079447077,-2
 .3912138504\C,0,-0.9523117567,-2.9806580108,-1.6549780367\C,0,-0.30621
 65702,-1.7447617172,-1.7495588947\C,0,3.31483906,-0.3436652588,-3.2963
 755242\C,0,3.4007418853,-0.5920867001,-4.6821837183\C,0,5.7753778831,-
 1.0456013055,-4.4666952609\C,0,4.6226411371,-0.9516377556,-5.260538759
 9\C,0,5.6996087508,-0.7656775706,-3.0962948273\C,0,4.4757611805,-0.416
 1390975,-2.5091696622\H,0,3.0112438627,-1.3260474166,-0.3251127119\H,0
 ,1.1710886476,0.6324675188,3.048784559\H,0,2.7291510319,-1.0654961248,
 2.1266297169\H,0,-0.0529301775,2.3475575076,3.6877409868\H,0,1.1502025
 466,3.9664370117,2.1582560965\H,0,2.5140252629,-0.4625156394,-5.312976
 0186\H,0,4.4419280676,-0.154946276,-1.4492898347\H,0,2.1657350729,-2.5
 957637883,-3.9580302054\H,0,1.0120371706,-4.7844306838,-3.7933255559\H
 ,0,-0.9896486241,-5.0477618039,-2.3142310707\H,0,-1.8280035637,-3.0838
 950998,-1.0066271722\H,0,-0.6761788965,-0.8999408102,-1.1595097076\H,0
 ,6.6017890098,-0.803163136,-2.4770781641\H,0,6.734467281,-1.3140822202
 ,-4.9208470277\H,0,4.6784406891,-1.1341353887,-6.3384753901\H,0,-3.910
 7968232,5.7584786266,-5.055989461\\Version=ES64L-G09RevE.01\State=1-A\
 HF=-2261.8877021\RMSD=6.163e-09\Dipole=-0.2653623,-0.5434221,0.9976111
 \Quadrupole=0.7806477,-5.41003,4.6293823,-3.7634432,-2.1212227,8.90132
 46\PG=C01 [X(C39H32O1P2)]\\@


 A true friend is someone who is there for
 you when he'd rather be anywhere else.
                               -- Len Wein
 Job cpu time:       1 days 10 hours 42 minutes 31.4 seconds.
 File lengths (MBytes):  RWF=   1320 Int=      0 D2E=      0 Chk=    168 Scr=      1
 Normal termination of Gaussian 09 at Sat Feb 12 14:55:13 2022.
 Initial command:
 /gstore/apps/gaussian/g09.e01-foss-2017a/g09/l1.exe "/local/29510744/Gau-1034.inp" -scrdir="/local/29510744/"
 Entering Link 1 = /gstore/apps/gaussian/g09.e01-foss-2017a/g09/l1.exe PID=      5650.
  
 Copyright (c) 1988,1990,1992,1993,1995,1998,2003,2009,2015,
            Gaussian, Inc.  All Rights Reserved.
  
 This is part of the Gaussian(R) 09 program.  It is based on
 the Gaussian(R) 03 system (copyright 2003, Gaussian, Inc.),
 the Gaussian(R) 98 system (copyright 1998, Gaussian, Inc.),
 the Gaussian(R) 94 system (copyright 1995, Gaussian, Inc.),
 the Gaussian 92(TM) system (copyright 1992, Gaussian, Inc.),
 the Gaussian 90(TM) system (copyright 1990, Gaussian, Inc.),
 the Gaussian 88(TM) system (copyright 1988, Gaussian, Inc.),
 the Gaussian 86(TM) system (copyright 1986, Carnegie Mellon
 University), and the Gaussian 82(TM) system (copyright 1983,
[...]
  1301. RY*(  25) C  57                  0.00000     3.23350   
  1302. RY*(  26) C  57                  0.00000     3.88512   
  1303. RY*(   1) C  58                  0.00551     1.63539   
  1304. RY*(   2) C  58                  0.00184     1.31039   
  1305. RY*(   3) C  58                  0.00155     0.79549   
  1306. RY*(   4) C  58                  0.00111     1.81925   
  1307. RY*(   5) C  58                  0.00079     1.58215   
  1308. RY*(   6) C  58                  0.00036     2.49094   
  1309. RY*(   7) C  58                  0.00031     2.14842   
  1310. RY*(   8) C  58                  0.00017     2.02200   
  1311. RY*(   9) C  58                  0.00011     1.80542   
  1312. RY*(  10) C  58                  0.00008     2.28291   
  1313. RY*(  11) C  58                  0.00005     2.06440   
  1314. RY*(  12) C  58                  0.00004     2.85181   
  1315. RY*(  13) C  58                  0.00004     2.44516   
  1316. RY*(  14) C  58                  0.00003     1.94527   
  1317. RY*(  15) C  58                  0.00002     1.98128   
  1318. RY*(  16) C  58                  0.00001     2.25587   
  1319. RY*(  17) C  58                  0.00000     3.27161   
  1320. RY*(  18) C  58                  0.00000    21.08785   
  1321. RY*(  19) C  58                  0.00000     3.38451   
  1322. RY*(  20) C  58                  0.00000     3.41523   
  1323. RY*(  21) C  58                  0.00000     3.35584   
  1324. RY*(  22) C  58                  0.00000     3.34515   
  1325. RY*(  23) C  58                  0.00000     3.25289   
  1326. RY*(  24) C  58                  0.00000     3.41570   
  1327. RY*(  25) C  58                  0.00000     3.45177   
  1328. RY*(  26) C  58                  0.00000     3.60989   
  1329. RY*(   1) H  59                  0.00119     0.75212   
  1330. RY*(   2) H  59                  0.00028     2.37233   
  1331. RY*(   3) H  59                  0.00017     2.24821   
  1332. RY*(   4) H  59                  0.00010     2.85245   
  1333. RY*(   5) H  59                  0.00002     3.13214   
  1334. RY*(   1) H  60                  0.00045     1.39988   
  1335. RY*(   2) H  60                  0.00018     1.73177   
  1336. RY*(   3) H  60                  0.00016     2.19459   
  1337. RY*(   4) H  60                  0.00010     2.76634   
  1338. RY*(   5) H  60                  0.00002     3.09693   
  1339. RY*(   1) H  61                  0.00036     1.00692   
  1340. RY*(   2) H  61                  0.00019     1.88234   
  1341. RY*(   3) H  61                  0.00011     2.16089   
  1342. RY*(   4) H  61                  0.00008     2.79697   
  1343. RY*(   5) H  61                  0.00001     3.05963   
  1344. RY*(   1) H  62                  0.00053     0.97551   
  1345. RY*(   2) H  62                  0.00014     1.77840   
  1346. RY*(   3) H  62                  0.00009     2.13804   
  1347. RY*(   4) H  62                  0.00007     2.42126   
  1348. RY*(   5) H  62                  0.00001     2.97862   
  1349. RY*(   1) H  63                  0.00048     1.07114   
  1350. RY*(   2) H  63                  0.00011     1.55030   
  1351. RY*(   3) H  63                  0.00010     2.24532   
  1352. RY*(   4) H  63                  0.00006     2.40481   
  1353. RY*(   5) H  63                  0.00000     2.96671   
  1354. RY*(   1) H  64                  0.00087     0.77482   
  1355. RY*(   2) H  64                  0.00033     2.32613   
  1356. RY*(   3) H  64                  0.00014     2.21185   
  1357. RY*(   4) H  64                  0.00009     2.74594   
  1358. RY*(   5) H  64                  0.00002     3.11934   
  1359. RY*(   1) H  65                  0.00115     0.77015   
  1360. RY*(   2) H  65                  0.00029     2.34961   
  1361. RY*(   3) H  65                  0.00012     2.29218   
  1362. RY*(   4) H  65                  0.00009     2.66055   
  1363. RY*(   5) H  65                  0.00003     3.18990   
  1364. RY*(   1) H  66                  0.00111     0.82156   
  1365. RY*(   2) H  66                  0.00030     2.38428   
  1366. RY*(   3) H  66                  0.00013     2.25594   
  1367. RY*(   4) H  66                  0.00010     2.74302   
  1368. RY*(   5) H  66                  0.00003     3.21142   
  1369. RY*(   1) H  67                  0.00042     0.98638   
  1370. RY*(   2) H  67                  0.00019     1.83298   
  1371. RY*(   3) H  67                  0.00012     2.15993   
  1372. RY*(   4) H  67                  0.00009     2.77349   
  1373. RY*(   5) H  67                  0.00002     3.09382   
  1374. RY*(   1) H  68                  0.00034     0.93459   
  1375. RY*(   2) H  68                  0.00020     1.83718   
  1376. RY*(   3) H  68                  0.00013     2.16862   
  1377. RY*(   4) H  68                  0.00008     2.75883   
  1378. RY*(   5) H  68                  0.00002     3.10760   
  1379. RY*(   1) H  69                  0.00038     1.13939   
  1380. RY*(   2) H  69                  0.00020     1.90327   
  1381. RY*(   3) H  69                  0.00018     2.21761   
  1382. RY*(   4) H  69                  0.00012     2.65904   
  1383. RY*(   5) H  69                  0.00001     3.05732   
  1384. RY*(   1) H  70                  0.00124     0.78788   
  1385. RY*(   2) H  70                  0.00023     2.56380   
  1386. RY*(   3) H  70                  0.00021     2.29501   
  1387. RY*(   4) H  70                  0.00011     2.80189   
  1388. RY*(   5) H  70                  0.00002     3.30500   
  1389. RY*(   1) H  71                  0.00039     0.96805   
  1390. RY*(   2) H  71                  0.00019     1.85773   
  1391. RY*(   3) H  71                  0.00012     2.63107   
  1392. RY*(   4) H  71                  0.00011     2.24021   
  1393. RY*(   5) H  71                  0.00002     3.09356   
  1394. RY*(   1) H  72                  0.00032     0.88873   
  1395. RY*(   2) H  72                  0.00020     1.83765   
  1396. RY*(   3) H  72                  0.00011     2.15247   
  1397. RY*(   4) H  72                  0.00008     2.75165   
  1398. RY*(   5) H  72                  0.00002     3.09787   
  1399. RY*(   1) H  73                  0.00037     0.96424   
  1400. RY*(   2) H  73                  0.00020     1.87381   
  1401. RY*(   3) H  73                  0.00011     2.63203   
  1402. RY*(   4) H  73                  0.00012     2.20831   
  1403. RY*(   5) H  73                  0.00002     3.09382   
  1404. RY*(   1) H  74                  0.00038     0.95261   
  1405. RY*(   2) H  74                  0.00020     1.88789   
  1406. RY*(   3) H  74                  0.00012     2.71294   
  1407. RY*(   4) H  74                  0.00011     2.15822   
  1408. RY*(   5) H  74                  0.00002     3.10075   
  1409. BD*(   1) P   1 - C   2          0.03687     0.22084   
  1410. BD*(   1) P   1 - C  12          0.03782     0.23335   
  1411. BD*(   1) P   1 - C  18          0.04706     0.23754   
  1412. BD*(   1) C   2 - C   3          0.02619     0.52016   
  1413. BD*(   2) C   2 - C   3          0.38264     0.02035  1418(v),1423(v),1410(v)
                                                    1438(r),209(g),208(g),184(g)
                                                    1411(v)
  1414. BD*(   1) C   2 - C   7          0.03475     0.51401   
  1415. BD*(   1) C   3 - C   4          0.01690     0.54323   
  1416. BD*(   1) C   3 - H  24          0.01545     0.41533   
  1417. BD*(   1) C   4 - C   5          0.01339     0.53540   
  1418. BD*(   2) C   4 - C   5          0.35283     0.02271  1413(v),1423(v),235(g)
                                                    261(g)
  1419. BD*(   1) C   4 - H  26          0.01399     0.40068   
  1420. BD*(   1) C   5 - C   6          0.02081     0.53450   
  1421. BD*(   1) C   5 - H  25          0.01488     0.40067   
  1422. BD*(   1) C   6 - C   7          0.03878     0.51333   
  1423. BD*(   2) C   6 - C   7          0.38434     0.02513  1418(v),1413(v),1476(r)
                                                    1469(r),1428(v),313(g)
                                                    1429(v),1426(v),261(v)
  1424. BD*(   1) C   6 - C   9          0.03795     0.35816   
  1425. BD*(   1) C   7 - O   8          0.03252     0.33470   
  1426. BD*(   1) O   8 - C  46          0.03271     0.33075   
  1427. BD*(   1) C   9 - C  10          0.01846     0.33366   
  1428. BD*(   1) C   9 - C  11          0.02792     0.31108   
  1429. BD*(   1) C   9 - C  45          0.03779     0.35910   
  1430. BD*(   1) C  10 - H  27          0.00672     0.36987   
  1431. BD*(   1) C  10 - H  28          0.00703     0.36845   
  1432. BD*(   1) C  10 - H  62          0.00701     0.36815   
  1433. BD*(   1) C  11 - H  29          0.00660     0.38388   
  1434. BD*(   1) C  11 - H  30          0.00718     0.37131   
  1435. BD*(   1) C  11 - H  63          0.00720     0.37136   
  1436. BD*(   1) C  12 - C  13          0.03258     0.53629   
  1437. BD*(   1) C  12 - C  17          0.02389     0.52846   
  1438. BD*(   2) C  12 - C  17          0.36765     0.02960  1445(v),1440(v),1411(v)
                                                    573(g),1413(r),1490(r)
                                                    1480(r),469(v)
  1439. BD*(   1) C  13 - C  14          0.01707     0.54949   
  1440. BD*(   2) C  13 - C  14          0.31510     0.03415  1445(v),1438(v),1452(r)
                                                    495(g),1490(r),469(g)
                                                    1480(r)
  1441. BD*(   1) C  13 - H  35          0.01785     0.42057   
  1442. BD*(   1) C  14 - C  15          0.01481     0.54139   
  1443. BD*(   1) C  14 - H  36          0.01410     0.40800   
  1444. BD*(   1) C  15 - C  16          0.01494     0.54308   
  1445. BD*(   2) C  15 - C  16          0.32382     0.03228  1440(v),1438(v),1485(r)
                                                    521(g),547(g)
  1446. BD*(   1) C  15 - H  37          0.01324     0.41002   
  1447. BD*(   1) C  16 - C  17          0.01756     0.54902   
  1448. BD*(   1) C  16 - H  38          0.01383     0.41116   
  1449. BD*(   1) C  17 - H  39          0.01672     0.41678   
  1450. BD*(   1) C  18 - C  19          0.02289     0.53047   
  1451. BD*(   1) C  18 - C  23          0.02435     0.53895   
  1452. BD*(   2) C  18 - C  23          0.37141     0.03423  1458(v),1454(v),1440(r)
                                                    729(g),1409(v),600(g)
  1453. BD*(   1) C  19 - C  21          0.01551     0.55278   
  1454. BD*(   2) C  19 - C  21          0.32055     0.03669  1458(v),1452(v),677(g)
                                                    625(g)
  1455. BD*(   1) C  19 - H  31          0.01568     0.41492   
  1456. BD*(   1) C  20 - C  21          0.01473     0.54460   
  1457. BD*(   1) C  20 - C  22          0.01466     0.54800   
  1458. BD*(   2) C  20 - C  22          0.33520     0.03486  1452(v),1454(v),651(g)
                                                    703(g)
  1459. BD*(   1) C  20 - H  32          0.01313     0.41149   
  1460. BD*(   1) C  21 - H  74          0.01353     0.41091   
  1461. BD*(   1) C  22 - C  23          0.01583     0.55126   
  1462. BD*(   1) C  22 - H  33          0.01360     0.41179   
  1463. BD*(   1) C  23 - H  34          0.01620     0.42270   
  1464. BD*(   1) P  40 - C  41          0.03375     0.21956   
  1465. BD*(   1) P  40 - C  47          0.04581     0.22218   
  1466. BD*(   1) P  40 - C  53          0.03623     0.23567   
  1467. BD*(   1) C  41 - C  42          0.02697     0.52016   
  1468. BD*(   1) C  41 - C  46          0.03435     0.51251   
  1469. BD*(   2) C  41 - C  46          0.39093     0.01698  1471(v),1476(v),1480(r)
                                                    1423(r),1465(v),993(g)
                                                    864(g),1466(v)
  1470. BD*(   1) C  42 - C  43          0.01662     0.54212   
  1471. BD*(   2) C  42 - C  43          0.31407     0.02711  1476(v),1469(v),915(g)
                                                    1495(r),1480(r)
  1472. BD*(   1) C  42 - H  59          0.01526     0.40966   
  1473. BD*(   1) C  43 - C  44          0.01329     0.53458   
  1474. BD*(   1) C  43 - H  61          0.01377     0.40045   
  1475. BD*(   1) C  44 - C  45          0.02095     0.53438   
  1476. BD*(   2) C  44 - C  45          0.34257     0.02887  1471(v),1469(v),1423(r)
                                                    941(g),1428(v),1424(v)
  1477. BD*(   1) C  44 - H  60          0.01485     0.40052   
  1478. BD*(   1) C  45 - C  46          0.03900     0.51391   
  1479. BD*(   1) C  47 - C  48          0.02590     0.54096   
  1480. BD*(   2) C  47 - C  48          0.37255     0.03543  1485(v),1490(v),1469(r)
                                                    1464(v),1471(r),1044(g)
                                                    1045(g),1438(r),1440(r)
                                                    1445(r)
  1481. BD*(   1) C  47 - C  52          0.02335     0.53323   
  1482. BD*(   1) C  48 - C  49          0.01647     0.55288   
  1483. BD*(   1) C  48 - H  66          0.01835     0.42485   
  1484. BD*(   1) C  49 - C  50          0.01476     0.55083   
  1485. BD*(   2) C  49 - C  50          0.33620     0.03657  1480(v),1490(v),1071(g)
                                                    1445(r),1097(g)
  1486. BD*(   1) C  49 - H  67          0.01385     0.41286   
  1487. BD*(   1) C  50 - C  51          0.01501     0.54801   
  1488. BD*(   1) C  50 - H  68          0.01342     0.41394   
  1489. BD*(   1) C  51 - C  52          0.01641     0.55961   
  1490. BD*(   2) C  51 - C  52          0.31071     0.04382  1485(v),1480(v),1123(g)
                                                    1438(r),1440(r)
  1491. BD*(   1) C  51 - H  69          0.01375     0.41598   
  1492. BD*(   1) C  52 - H  70          0.01642     0.42468   
  1493. BD*(   1) C  53 - C  54          0.02170     0.51685   
  1494. BD*(   1) C  53 - C  58          0.02877     0.53356   
  1495. BD*(   2) C  53 - C  58          0.36680     0.02609  1501(v),1497(v),1305(g)
                                                    1465(v),1471(r),1176(g)
  1496. BD*(   1) C  54 - C  56          0.01618     0.54358   
  1497. BD*(   2) C  54 - C  56          0.32298     0.02768  1501(v),1495(v),1253(g)
                                                    1201(g)
  1498. BD*(   1) C  54 - H  64          0.01576     0.40386   
  1499. BD*(   1) C  55 - C  56          0.01474     0.53599   
  1500. BD*(   1) C  55 - C  57          0.01447     0.53889   
  1501. BD*(   2) C  55 - C  57          0.32924     0.02675  1495(v),1497(v),1227(g)
                                                    1279(g)
  1502. BD*(   1) C  55 - H  72          0.01299     0.40430   
  1503. BD*(   1) C  56 - H  73          0.01347     0.40298   
  1504. BD*(   1) C  57 - C  58          0.01665     0.54253   
  1505. BD*(   1) C  57 - H  71          0.01358     0.40379   
  1506. BD*(   1) C  58 - H  65          0.01648     0.41256   
       -------------------------------
              Total Lewis  295.57391  ( 97.2283%)
        Valence non-Lewis    7.84563  (  2.5808%)
        Rydberg non-Lewis    0.58046  (  0.1909%)
       -------------------------------
            Total unit  1  304.00000  (100.0000%)
           Charge unit  1    0.00000
 1\1\GINC-NC259\SP\RPBE1PBE\def2TZVP\C39H32O1P2\WALROTHR\12-Feb-2022\0\
 \# PBE1PBE/def2TZVP int=(grid=ultrafine) empiricaldispersion=GD3BJ pop
 =nbo guess=read geom=check\\XantPhos_4 title\\0,1\P,0,-1.5206408158,1.
 6502749746,-3.5842421286\C,0,-2.074826096,2.1770095467,-1.8950816509\C
 ,0,-3.4322727012,2.4111183148,-1.5853797746\C,0,-3.8291236995,2.642513
 6621,-0.2626929331\C,0,-2.8859482041,2.6495712113,0.7789754212\C,0,-1.
 5213820951,2.4764035702,0.5079630714\C,0,-1.15525806,2.2713899418,-0.8
 34888851\O,0,0.1843020362,2.1372509519,-1.1336933083\C,0,-0.3790502385
 ,2.5224495384,1.5384661051\C,0,-0.8877367038,2.2959569995,2.9696620545
 \C,0,0.3030796228,3.9185610478,1.4529401271\C,0,-2.1478464108,-0.06860
 52265,-3.7856687333\C,0,-3.2909221393,-0.5626545902,-3.1311646684\C,0,
 -3.7728103978,-1.8424543991,-3.4328461564\C,0,-3.122101332,-2.63480679
 37,-4.3897426123\C,0,-1.9802706201,-2.1487389737,-5.0417092228\C,0,-1.
 4905234632,-0.8729627263,-4.736800439\C,0,-2.6825795215,2.5885193868,-
 4.6603132146\C,0,-2.8781140795,3.9669855553,-4.4342852187\C,0,-4.44907
 0022,4.052752746,-6.2862499982\C,0,-3.7654260753,4.6890888958,-5.23923
 72734\C,0,-4.2457585278,2.6872714483,-6.5226123622\C,0,-3.3681252904,1
 .9536585301,-5.7118559525\H,0,-4.1735681638,2.4087697906,-2.3904015732
 \H,0,-3.2234839899,2.8087595944,1.8072783471\H,0,-4.8861460262,2.81339
 95287,-0.0370047554\H,0,-1.3851431788,1.31737024,3.0792456091\H,0,-1.6
 010361669,3.0861948461,3.2557346871\H,0,0.6848994519,4.1184572237,0.43
 92069981\H,0,-0.4214846369,4.7084567379,1.7149553156\H,0,-2.3308850146
 ,4.4713598533,-3.6341880485\H,0,-5.1367877677,4.6232466556,-6.91901538
 13\H,0,-4.7745127666,2.1835981387,-7.3383724947\H,0,-3.2243855676,0.88
 55666829,-5.8978300548\H,0,-3.8009431821,0.0474531506,-2.38005228\H,0,
 -4.6606547747,-2.2228987031,-2.916727442\H,0,-3.4996819217,-3.63615361
 16,-4.6205395399\H,0,-1.4575739584,-2.7701358073,-5.7753377974\H,0,-0.
 5891811748,-0.4870779882,-5.2273292805\P,0,1.6489358451,0.0755364079,-
 2.6518001677\C,0,1.7451506276,0.3660665661,-0.8277325051\C,0,2.3971589
 535,-0.5098395904,0.0653470861\C,0,2.2113485069,-0.3821277556,1.446777
 2993\C,0,1.3321016205,0.5818716105,1.9680661382\C,0,0.6426304261,1.453
 8192053,1.1141786013\C,0,0.8938374557,1.3309281122,-0.2638509105\C,0,0
 .8202651959,-1.5859731356,-2.5835037314\C,0,1.2825503671,-2.6920370746
 ,-3.3210193905\C,0,0.6325325658,-3.930621012,-3.222029805\C,0,-0.48451
 53821,-4.079447077,-2.3912138504\C,0,-0.9523117567,-2.9806580108,-1.65
 49780367\C,0,-0.3062165702,-1.7447617172,-1.7495588947\C,0,3.31483906,
 -0.3436652588,-3.2963755242\C,0,3.4007418853,-0.5920867001,-4.68218371
 83\C,0,5.7753778831,-1.0456013055,-4.4666952609\C,0,4.6226411371,-0.95
 16377556,-5.2605387599\C,0,5.6996087508,-0.7656775706,-3.0962948273\C,
 0,4.4757611805,-0.4161390975,-2.5091696622\H,0,3.0112438627,-1.3260474
 166,-0.3251127119\H,0,1.1710886476,0.6324675188,3.048784559\H,0,2.7291
 510319,-1.0654961248,2.1266297169\H,0,-0.0529301775,2.3475575076,3.687
 7409868\H,0,1.1502025466,3.9664370117,2.1582560965\H,0,2.5140252629,-0
 .4625156394,-5.3129760186\H,0,4.4419280676,-0.154946276,-1.4492898347\
 H,0,2.1657350729,-2.5957637883,-3.9580302054\H,0,1.0120371706,-4.78443
 06838,-3.7933255559\H,0,-0.9896486241,-5.0477618039,-2.3142310707\H,0,
 -1.8280035637,-3.0838950998,-1.0066271722\H,0,-0.6761788965,-0.8999408
 102,-1.1595097076\H,0,6.6017890098,-0.803163136,-2.4770781641\H,0,6.73
 4467281,-1.3140822202,-4.9208470277\H,0,4.6784406891,-1.1341353887,-6.
 3384753901\H,0,-3.9107968232,5.7584786266,-5.055989461\\Version=ES64L-
 G09RevE.01\State=1-A\HF=-2261.8877021\RMSD=5.311e-09\Dipole=-0.2653631
 ,-0.5434254,0.9976091\Quadrupole=0.7806771,-5.4100364,4.6293593,-3.763
 4238,-2.1212353,8.9013258\PG=C01 [X(C39H32O1P2)]\\@


 ON INDUCTION, OR "WHY DO YOU BELIEVE THE SUN WILL RISE TOMORROW?":

 ... THE FARMER WHO HAS FED THE CHICKEN EVERY DAY THROUGHOUT ITS
 LIFE AT LAST WRINGS ITS NECK INSTEAD, SHOWING THAT MORE REFINED VIEWS
 AS TO THE UNIFORMITY OF NATURE WOULD HAVE BEEN USEFUL TO THE CHICKEN.

                               -- BERTRAND RUSSELL
 Job cpu time:       0 days  5 hours 26 minutes 13.4 seconds.
 File lengths (MBytes):  RWF=   1164 Int=      0 D2E=      0 Chk=    168 Scr=      1
 Normal termination of Gaussian 09 at Sat Feb 12 15:15:47 2022.
