 Entering Gaussian System, Link 0=g09
 Input=XantPhos_2_SPE_NoPd.com
 Output=XantPhos_2_SPE_NoPd.log
 Initial command:
 /gstore/apps/gaussian/g09.e01-foss-2017a/g09/l1.exe "/local/22791534/Gau-22040.inp" -scrdir="/local/22791534/"
 Entering Link 1 = /gstore/apps/gaussian/g09.e01-foss-2017a/g09/l1.exe PID=     22041.
  
 Copyright (c) 1988,1990,1992,1993,1995,1998,2003,2009,2015,
            Gaussian, Inc.  All Rights Reserved.
  
 This is part of the Gaussian(R) 09 program.  It is based on
 the Gaussian(R) 03 system (copyright 2003, Gaussian, Inc.),
 the Gaussian(R) 98 system (copyright 1998, Gaussian, Inc.),
 the Gaussian(R) 94 system (copyright 1995, Gaussian, Inc.),
 the Gaussian 92(TM) system (copyright 1992, Gaussian, Inc.),
 the Gaussian 90(TM) system (copyright 1990, Gaussian, Inc.),
 the Gaussian 88(TM) system (copyright 1988, Gaussian, Inc.),
 the Gaussian 86(TM) system (copyright 1986, Carnegie Mellon
 University), and the Gaussian 82(TM) system (copyright 1983,
 Carnegie Mellon University). Gaussian is a federally registered
 trademark of Gaussian, Inc.
  
 This software contains proprietary and confidential information,
 including trade secrets, belonging to Gaussian, Inc.
  
 This software is provided under written license and may be
 used, copied, transmitted, or stored only in accord with that
 written license.
  
 The following legend is applicable only to US Government
 contracts under FAR:
  
                    RESTRICTED RIGHTS LEGEND
  
 Use, reproduction and disclosure by the US Government is
 subject to restrictions as set forth in subparagraphs (a)
 and (c) of the Commercial Computer Software - Restricted
 Rights clause in FAR 52.227-19.
  
 Gaussian, Inc.
 340 Quinnipiac St., Bldg. 40, Wallingford CT 06492
  
  
 ---------------------------------------------------------------
 Warning -- This program may not be used in any manner that
 competes with the business of Gaussian, Inc. or will provide
 assistance to any competitor of Gaussian, Inc.  The licensee
 of this program is prohibited from giving any competitor of
 Gaussian, Inc. access to this program.  By using this program,
 the user acknowledges that Gaussian, Inc. is engaged in the
 business of creating and licensing software in the field of
 computational chemistry and represents and warrants to the
 licensee that it is not a competitor of Gaussian, Inc. and that
 it will not use this program in any manner prohibited above.
 ---------------------------------------------------------------
  

 Cite this work as:
 Gaussian 09, Revision E.01,
 M. J. Frisch, G. W. Trucks, H. B. Schlegel, G. E. Scuseria, 
 M. A. Robb, J. R. Cheeseman, G. Scalmani, V. Barone, B. Mennucci, 
 G. A. Petersson, H. Nakatsuji, M. Caricato, X. Li, H. P. Hratchian, 
 A. F. Izmaylov, J. Bloino, G. Zheng, J. L. Sonnenberg, M. Hada, 
 M. Ehara, K. Toyota, R. Fukuda, J. Hasegawa, M. Ishida, T. Nakajima, 
 Y. Honda, O. Kitao, H. Nakai, T. Vreven, J. A. Montgomery, Jr., 
 J. E. Peralta, F. Ogliaro, M. Bearpark, J. J. Heyd, E. Brothers, 
 K. N. Kudin, V. N. Staroverov, T. Keith, R. Kobayashi, J. Normand, 
 K. Raghavachari, A. Rendell, J. C. Burant, S. S. Iyengar, J. Tomasi, 
 M. Cossi, N. Rega, J. M. Millam, M. Klene, J. E. Knox, J. B. Cross, 
 V. Bakken, C. Adamo, J. Jaramillo, R. Gomperts, R. E. Stratmann, 
 O. Yazyev, A. J. Austin, R. Cammi, C. Pomelli, J. W. Ochterski, 
 R. L. Martin, K. Morokuma, V. G. Zakrzewski, G. A. Voth, 
 P. Salvador, J. J. Dannenberg, S. Dapprich, A. D. Daniels, 
 O. Farkas, J. B. Foresman, J. V. Ortiz, J. Cioslowski, 
 and D. J. Fox, Gaussian, Inc., Wallingford CT, 2013.
 
 ******************************************
 Gaussian 09:  ES64L-G09RevE.01 30-Nov-2015
                 6-Dec-2021 
 ******************************************
 %nprocs=14
 Will use up to   14 processors via shared memory.
 %mem=128GB
 %chk=XantPhos_2_SPE_NoPd.chk
 ----------------------------------------------------------------------
 # PBE1PBE/def2TZVP int=(grid=ultrafine) empiricaldispersion=GD3BJ nmr=
 giao
 ----------------------------------------------------------------------
 1/38=1/1;
 2/12=2,17=6,18=5,40=1/2;
 3/5=44,7=101,11=2,16=1,25=1,30=1,74=-13,75=-5,124=41/1,2,8,3;
 4//1;
 5/5=2,38=5/2;
 8/6=1,10=90,11=11/1;
 10/13=100,45=16/2;
 6/7=2,8=2,9=2,10=2,28=1/1;
 99/9=1/99;
 ----------------
 XantPhos_2 title
 ----------------
 Symbolic Z-matrix:
 Charge =  0 Multiplicity = 1
 P                    -1.6294    1.64502  -3.46326 
 C                    -2.16845   2.23628  -1.7957 
 C                    -3.51986   2.31762  -1.39948 
 C                    -3.85422   2.51392  -0.05454 
 C                    -2.8564    2.57857   0.93252 
 C                    -1.50239   2.47402   0.58539 
 C                    -1.20175   2.32998  -0.78064 
 O                     0.1208    2.16529  -1.14667 
 C                    -0.31136   2.48283   1.55862 
 C                    -0.74977   2.2201    3.00678 
 C                     0.3811    3.87415   1.47819 
 C                    -2.43134  -0.02941  -3.39137 
 C                    -3.2219   -0.53449  -4.44062 
 C                    -3.82044  -1.79789  -4.33116 
 C                    -3.63571  -2.57129  -3.1788 
 C                    -2.84701  -2.07522  -2.12995 
 C                    -2.25     -0.81566  -2.23441 
 C                    -2.60877   2.49307  -4.76253 
 C                    -2.30723   2.14396  -6.09548 
 C                    -4.0327    3.65244  -6.8944 
 C                    -3.02357   2.71314  -7.15364 
 C                    -4.31053   4.02658  -5.57344 
 C                    -3.60391   3.45109  -4.50845 
 H                    -4.31256   2.17544  -2.13919 
 H                    -3.14592   2.68871   1.98156 
 H                    -4.90708   2.58106   0.23578 
 H                    -1.24362   1.23961   3.11546 
 H                    -1.44694   3.00363   3.34623 
 H                     0.70906   4.10167   0.45151 
 H                    -0.3207    4.66209   1.80069 
 H                    -1.48077   1.45473  -6.30252 
 H                    -4.58471   4.10803  -7.72259 
 H                    -5.07279   4.7846   -5.36576 
 H                    -3.79928   3.78767  -3.48803 
 H                    -3.39146   0.06681  -5.3377 
 H                    -4.44241  -2.17134  -5.15158 
 H                    -4.10516  -3.55682  -3.09476 
 H                    -2.69109  -2.67339  -1.22676 
 H                    -1.64716  -0.43752  -1.40234 
 P                     1.64021   0.13953  -2.80101 
 C                     1.68595   0.37606  -0.96258 
 C                     2.4872   -0.42359  -0.11881 
 C                     2.3684   -0.32768   1.27303 
 C                     1.45414   0.56648   1.85554 
 C                     0.67927   1.41778   1.05533 
 C                     0.84229   1.31242  -0.33811 
 C                     0.78864  -1.47159  -3.06102 
 C                     0.79961  -2.51918  -2.12213 
 C                     0.2321   -3.75745  -2.4473 
 C                    -0.34522  -3.9603   -3.70922 
 C                    -0.3624   -2.91832  -4.64682 
 C                     0.19656  -1.67623  -4.32248 
 C                     3.38875  -0.31328  -3.15587 
 C                     4.43117   0.47226  -2.6213 
 C                     6.07122  -0.97545  -3.67932 
 C                     5.76414   0.13316  -2.87607 
 C                     5.03812  -1.74873  -4.22382 
 C                     3.69971  -1.42317  -3.96222 
 H                     3.20287  -1.12181  -0.56366 
 H                     1.36239   0.60617   2.94489 
 H                     2.98981  -0.96053   1.91395 
 H                     0.1184    2.25289   3.68524 
 H                     1.26447   3.89398   2.13914 
 H                     4.19628   1.34952  -2.01364 
 H                     2.90043  -2.03958  -4.38326 
 H                     1.24359  -2.36704  -1.13407 
 H                     0.24008  -4.56759  -1.71042 
 H                    -0.79097  -4.9286   -3.95869 
 H                    -0.82845  -3.06516  -5.626 
 H                     0.17534  -0.8479   -5.04037 
 H                     5.26938  -2.61468  -4.85261 
 H                     7.11579  -1.23291  -3.88281 
 H                     6.56632   0.74869  -2.45663 
 H                    -2.77501   2.44035  -8.18425 
 
 Stoichiometry    C39H32OP2
 Framework group  C1[X(C39H32OP2)]
 Deg. of freedom   216
 Full point group                 C1      NOp   1
 Largest Abelian subgroup         C1      NOp   1
 Largest concise Abelian subgroup C1      NOp   1
                         Standard orientation:                         
 ---------------------------------------------------------------------
 Center     Atomic      Atomic             Coordinates (Angstroms)
 Number     Number       Type             X           Y           Z
 ---------------------------------------------------------------------
      1         15           0       -1.883887   -0.357322   -0.789458
      2          6           0       -2.120620    1.416916   -0.323709
      3          6           0       -3.245018    1.891236    0.383870
      4          6           0       -3.244827    3.177295    0.936353
      5          6           0       -2.108619    3.998823    0.845601
      6          6           0       -0.960017    3.555492    0.175558
      7          6           0       -1.014962    2.279126   -0.411846
      8          8           0        0.122222    1.791886   -1.027988
      9          6           0        0.364732    4.324576    0.036366
     10          6           0        0.466949    5.481050    1.041603
     11          6           0        0.455126    4.893777   -1.409173
     12          6           0       -1.971525   -1.066067    0.925760
     13          6           0       -2.780575   -2.172364    1.246010
     14          6           0       -2.825715   -2.659651    2.560135
     15          6           0       -2.064573   -2.053089    3.566588
     16          6           0       -1.254026   -0.951449    3.254149
     17          6           0       -1.207485   -0.461617    1.945821
     18          6           0       -3.420161   -1.001401   -1.558527
     19          6           0       -3.390913   -2.350133   -1.970383
     20          6           0       -5.693763   -2.184808   -2.719086
     21          6           0       -4.525666   -2.939971   -2.537157
     22          6           0       -5.714268   -0.835740   -2.342670
     23          6           0       -4.584013   -0.242431   -1.763701
     24          1           0       -4.102540    1.232415    0.546248
     25          1           0       -2.118476    4.982693    1.323451
     26          1           0       -4.127232    3.532753    1.477021
     27          1           0        0.412292    5.125438    2.084487
     28          1           0       -0.344829    6.208206    0.875882
     29          1           0        0.382968    4.093057   -2.162194
     30          1           0       -0.367028    5.608698   -1.583329
     31          1           0       -2.461818   -2.924604   -1.882524
     32          1           0       -6.577865   -2.642065   -3.174572
     33          1           0       -6.610934   -0.231130   -2.513552
     34          1           0       -4.599948    0.821845   -1.519212
     35          1           0       -3.395756   -2.643216    0.474702
     36          1           0       -3.469504   -3.513844    2.795257
     37          1           0       -2.102430   -2.434199    4.592278
     38          1           0       -0.650459   -0.472846    4.031643
     39          1           0       -0.579235    0.406279    1.720410
     40         15           0        1.755702   -0.743115   -0.794154
     41          6           0        2.215297    0.965510   -0.239893
     42          6           0        3.450364    1.250124    0.382190
     43          6           0        3.691799    2.513005    0.936605
     44          6           0        2.713286    3.520081    0.881708
     45          6           0        1.494946    3.296942    0.224950
     46          6           0        1.295881    2.025067   -0.342531
     47          6           0        1.509813   -1.705340    0.755740
     48          6           0        2.156976   -1.407427    1.968798
     49          6           0        2.011078   -2.261541    3.068943
     50          6           0        1.224034   -3.417771    2.966030
     51          6           0        0.573732   -3.716908    1.760740
     52          6           0        0.710402   -2.861064    0.661068
     53          6           0        3.379793   -1.391110   -1.369274
     54          6           0        4.170256   -0.610100   -2.237999
     55          6           0        5.865336   -2.351019   -2.268600
     56          6           0        5.410480   -1.087412   -2.674716
     57          6           0        5.076004   -3.135227   -1.417886
     58          6           0        3.837722   -2.658298   -0.965171
     59          1           0        4.218766    0.472303    0.428411
     60          1           0        2.916174    4.490986    1.343074
     61          1           0        4.650560    2.715802    1.423517
     62          1           0        1.414535    6.027790    0.906450
     63          1           0        1.416137    5.417915   -1.548164
     64          1           0        3.809869    0.365006   -2.574595
     65          1           0        3.233688   -3.273760   -0.292551
     66          1           0        2.768462   -0.504876    2.058292
     67          1           0        2.514067   -2.021750    4.011750
     68          1           0        1.109506   -4.081363    3.829197
     69          1           0       -0.056894   -4.607667    1.680648
     70          1           0        0.194245   -3.074531   -0.282307
     71          1           0        5.423270   -4.122852   -1.097361
     72          1           0        6.833167   -2.724322   -2.618970
     73          1           0        6.016979   -0.473962   -3.348619
     74          1           0       -4.488273   -3.985235   -2.860257
 ---------------------------------------------------------------------
 Rotational constants (GHZ):      0.0947259      0.0742311      0.0573624
 Standard basis: def2TZVP (5D, 7F)
 There are  1716 symmetry adapted cartesian basis functions of A   symmetry.
 There are  1506 symmetry adapted basis functions of A   symmetry.
  1506 basis functions,  2434 primitive gaussians,  1716 cartesian basis functions
   152 alpha electrons      152 beta electrons
       nuclear repulsion energy      5296.1216104377 Hartrees.
 NAtoms=   74 NActive=   74 NUniq=   74 SFac= 1.00D+00 NAtFMM=   60 NAOKFM=T Big=T
 Integral buffers will be    131072 words long.
 Raffenetti 2 integral format.
 Two-electron integral symmetry is turned on.
 Nuclear repulsion after empirical dispersion term =     5295.9991547459 Hartrees.
 One-electron integrals computed using PRISM.
   1 Symmetry operations used in ECPInt.
 ECPInt:  NShTT=  176715 NPrTT=  548629 LenC2=  138606 LenP2D=  284275.
 LDataN:  DoStor=T MaxTD1= 6 Len=  172
 NBasis=  1506 RedAO= T EigKep=  4.06D-06  NBF=  1506
 NBsUse=  1506 1.00D-06 EigRej= -1.00D+00 NBFU=  1506
 ExpMin= 9.04D-02 ExpMax= 5.24D+04 ExpMxC= 1.79D+03 IAcc=3 IRadAn=         5 AccDes= 0.00D+00
 Harris functional with IExCor= 1009 and IRadAn=       5 diagonalized for initial guess.
 HarFok:  IExCor= 1009 AccDes= 0.00D+00 IRadAn=         5 IDoV= 1 UseB2=F ITyADJ=14
 ICtDFT=  3500011 ScaDFX=  1.000000  1.000000  1.000000  1.000000
 FoFCou: FMM=F IPFlag=           0 FMFlag=      100000 FMFlg1=        2001
         NFxFlg=           0 DoJE=T BraDBF=F KetDBF=T FulRan=T
         wScrn=  0.000000 ICntrl=     500 IOpCl=  0 I1Cent=   200000004 NGrid=           0
         NMat0=    1 NMatS0=      1 NMatT0=    0 NMatD0=    1 NMtDS0=    0 NMtDT0=    0
 Petite list used in FoFCou.
 Requested convergence on RMS density matrix=1.00D-08 within 128 cycles.
 Requested convergence on MAX density matrix=1.00D-06.
 Requested convergence on             energy=1.00D-06.
 No special actions if energy rises.
 Integral accuracy reduced to 1.0D-05 until final iterations.
 Problem detected with inexpensive integrals.
 Switching to full accuracy and repeating last cycle.
 SCF Done:  E(RPBE1PBE) =  -2261.88770204     A.U. after   15 cycles
            NFock= 15  Conv=0.63D-08     -V/T= 2.0048
 DoSCS=F DFT=T ScalE2(SS,OS)=  1.000000  1.000000
 Range of M.O.s used for correlation:     1  1506
 NBasis=  1506 NAE=   152 NBE=   152 NFC=     0 NFV=     0
 NROrb=   1506 NOA=   152 NOB=   152 NVA=  1354 NVB=  1354

 **** Warning!!: The largest alpha MO coefficient is  0.49032296D+02

          Differentiating once with respect to magnetic field using GIAOs.
          Electric field/nuclear overlap derivatives assumed to be zero.
 FoFCou: FMM=F IPFlag=           0 FMFlag=      100000 FMFlg1=        2001
         NFxFlg=           0 DoJE=F BraDBF=F KetDBF=T FulRan=T
         wScrn=  0.000000 ICntrl=    6100 IOpCl=  0 I1Cent=           7 NGrid=          74
         NMat0=    1 NMatS0=      1 NMatT0=    0 NMatD0=    1 NMtDS0=    0 NMtDT0=    0
 Symmetry not used in FoFCou.
   1 Symmetry operations used in ECPInt.
 ECPInt:  NShTT=  176715 NPrTT=  548629 LenC2=  176716 LenP2D=  548629.
 LDataN:  DoStor=T MaxTD1= 7 Len=  274
 FoFJK:  IHMeth= 1 ICntrl=    6127 DoSepK=F KAlg= 0 I1Cent=   0 FoldK=F
 IRaf=         1 NMat=   1 IRICut=       1 DoRegI=T DoRafI=F ISym2E= 0.
          There are     3 degrees of freedom in the 1st order CPHF.  IDoFFX=0 NUNeed=     3.
      3 vectors produced by pass  0 Test12= 6.86D-12 3.33D-08 XBig12= 2.49D+02 2.19D+00.
 AX will form     3 AO Fock derivatives at one time.
      3 vectors produced by pass  1 Test12= 6.86D-12 3.33D-08 XBig12= 1.13D+00 2.17D-01.
      3 vectors produced by pass  2 Test12= 6.86D-12 3.33D-08 XBig12= 4.79D-03 8.73D-03.
      3 vectors produced by pass  3 Test12= 6.86D-12 3.33D-08 XBig12= 1.31D-05 4.56D-04.
      3 vectors produced by pass  4 Test12= 6.86D-12 3.33D-08 XBig12= 6.08D-08 4.94D-05.
      3 vectors produced by pass  5 Test12= 6.86D-12 3.33D-08 XBig12= 3.55D-10 4.60D-06.
      3 vectors produced by pass  6 Test12= 6.86D-12 3.33D-08 XBig12= 1.82D-12 3.95D-07.
 InvSVY:  IOpt=1 It=  1 EMax= 1.78D-15
 Solved reduced A of dimension    21 with     3 vectors.
 Calculating GIAO nuclear magnetic shielding tensors.
 SCF GIAO Magnetic shielding tensor (ppm):
      1  P    Isotropic =   313.1428   Anisotropy =    25.4133
   XX=   310.7114   YX=    13.8216   ZX=   -35.6877
   XY=   -16.3688   YY=   300.2070   ZY=    -8.0401
   XZ=    36.5079   YZ=    -5.5689   ZZ=   328.5099
   Eigenvalues:   298.5471   310.7963   330.0850
      2  C    Isotropic =    47.2609   Anisotropy =   163.6888
   XX=    24.2663   YX=   -10.7373   ZX=    53.3194
   XY=   -15.9041   YY=    -7.8758   ZY=   -51.5663
   XZ=    37.4777   YZ=   -39.4421   ZZ=   125.3921
   Eigenvalues:   -21.9447     7.3406   156.3867
      3  C    Isotropic =    40.7177   Anisotropy =   190.8901
   XX=    -6.7290   YX=   -54.5847   ZX=    60.4088
   XY=   -65.3984   YY=     6.5270   ZY=   -36.4811
   XZ=    69.4494   YZ=   -28.9668   ZZ=   122.3552
   Eigenvalues:   -65.1228    19.2982   167.9778
      4  C    Isotropic =    55.9568   Anisotropy =   176.4636
   XX=     1.0201   YX=     3.5661   ZX=    77.2815
   XY=     2.4921   YY=    60.9725   ZY=   -52.5183
   XZ=    90.5680   YZ=   -60.5047   ZZ=   105.8779
   Eigenvalues:   -54.1864    48.4577   173.5992
      5  C    Isotropic =    54.6491   Anisotropy =   178.8448
   XX=    55.8602   YX=   -23.1687   ZX=    38.1852
   XY=   -19.8085   YY=    -7.6969   ZY=   -79.3285
   XZ=    49.7005   YZ=   -76.8846   ZZ=   115.7838
   Eigenvalues:   -45.5184    35.5867   173.8789
      6  C    Isotropic =    43.2143   Anisotropy =   169.2631
   XX=    -4.6021   YX=   -38.4937   ZX=    41.2476
   XY=   -34.2145   YY=    14.4451   ZY=   -61.6329
   XZ=    40.1788   YZ=   -37.5837   ZZ=   119.7998
   Eigenvalues:   -32.6971     6.2835   156.0563
      7  C    Isotropic =    17.7067   Anisotropy =   133.0308
   XX=   -36.9619   YX=    21.6111   ZX=    56.9310
   XY=    20.3757   YY=    18.6351   ZY=   -45.4679
   XZ=    57.6644   YZ=   -35.1912   ZZ=    71.4469
   Eigenvalues:   -75.5238    22.2500   106.3939
      8  O    Isotropic =   141.0643   Anisotropy =   189.8632
   XX=    79.5908   YX=     8.2135   ZX=    -5.7280
   XY=     6.1095   YY=   112.7281   ZY=   -75.2189
   XZ=   -18.2843   YZ=   -73.0895   ZZ=   230.8741
   Eigenvalues:    76.3134    79.2398   267.6398
      9  C    Isotropic =   142.7961   Anisotropy =     8.2258
   XX=   142.1767   YX=    -1.0942   ZX=    -0.8135
   XY=    -0.4820   YY=   138.7012   ZY=    -7.2822
   XZ=     0.8442   YZ=     1.8848   ZZ=   147.5103
   Eigenvalues:   137.8097   142.2985   148.2800
     10  C    Isotropic =   162.4565   Anisotropy =    29.3588
   XX=   147.4379   YX=     1.3413   ZX=     0.8931
   XY=     1.2706   YY=   163.4162   ZY=    13.4504
   XZ=     0.3727   YZ=     6.7144   ZZ=   176.5154
   Eigenvalues:   147.3304   158.0101   182.0290
     11  C    Isotropic =   154.5766   Anisotropy =    44.0060
   XX=   145.4112   YX=     0.8914   ZX=    -2.2466
   XY=     1.0383   YY=   146.1503   ZY=   -16.4701
   XZ=    -3.1202   YZ=   -25.1670   ZZ=   172.1684
   Eigenvalues:   134.5909   145.2250   183.9140
     12  C    Isotropic =    31.6264   Anisotropy =   208.5516
   XX=    83.2396   YX=   -91.1419   ZX=   -40.1957
   XY=   -83.6541   YY=    51.5041   ZY=    38.1701
   XZ=   -37.3335   YZ=    41.0959   ZZ=   -39.8646
   Eigenvalues:   -55.1814   -20.6003   170.6608
     13  C    Isotropic =    54.0096   Anisotropy =   190.8993
   XX=    89.8221   YX=   -91.0713   ZX=   -65.6318
   XY=   -90.9021   YY=    70.5205   ZY=    -8.0303
   XZ=   -59.3210   YZ=   -11.0205   ZZ=     1.6863
   Eigenvalues:   -57.2841    38.0371   181.2758
     14  C    Isotropic =    54.9492   Anisotropy =   181.8289
   XX=    87.3271   YX=  -106.2928   ZX=    -7.0415
   XY=  -108.5702   YY=    33.3734   ZY=    33.3178
   XZ=    -5.5736   YZ=    33.7710   ZZ=    44.1470
   Eigenvalues:   -55.6726    44.3517   176.1684
     15  C    Isotropic =    55.2138   Anisotropy =   185.1440
   XX=   121.4918   YX=   -64.8643   ZX=   -18.0156
   XY=   -67.8075   YY=    78.6682   ZY=    48.3135
   XZ=   -18.2314   YZ=    47.6874   ZZ=   -34.5185
   Eigenvalues:   -52.3730    39.3713   178.6431
     16  C    Isotropic =    51.8490   Anisotropy =   192.7209
   XX=    90.6637   YX=   -91.0290   ZX=   -62.2931
   XY=   -89.8949   YY=    72.1245   ZY=    -9.4427
   XZ=   -60.4688   YZ=   -15.0984   ZZ=    -7.2411
   Eigenvalues:   -61.6434    36.8608   180.3296
     17  C    Isotropic =    45.9800   Anisotropy =   200.6607
   XX=    89.0230   YX=  -114.3037   ZX=    -9.3861
   XY=  -111.8702   YY=    25.6875   ZY=    30.7515
   XZ=   -20.8759   YZ=    21.4111   ZZ=    23.2295
   Eigenvalues:   -61.7395    19.9258   179.7538
     18  C    Isotropic =    42.6669   Anisotropy =   197.5388
   XX=    -9.9167   YX=    -8.1425   ZX=   -73.0909
   XY=    -3.7482   YY=     2.1432   ZY=   -60.3411
   XZ=   -61.6724   YZ=   -41.9693   ZZ=   135.7743
   Eigenvalues:   -50.0754     3.7167   174.3595
     19  C    Isotropic =    44.7109   Anisotropy =   185.4915
   XX=   -23.3072   YX=    57.9154   ZX=   -40.3106
   XY=    65.4365   YY=    18.5961   ZY=   -24.9655
   XZ=   -45.8445   YZ=   -48.8748   ZZ=   138.8439
   Eigenvalues:   -68.4849    34.2457   168.3719
     20  C    Isotropic =    52.6031   Anisotropy =   185.7041
   XX=    -8.5668   YX=   -19.8442   ZX=   -72.0626
   XY=   -20.7210   YY=    30.8099   ZY=   -50.3162
   XZ=   -75.6439   YZ=   -46.5680   ZZ=   135.5662
   Eigenvalues:   -56.9090    38.3125   176.4058
     21  C    Isotropic =    52.1767   Anisotropy =   184.6000
   XX=    53.7601   YX=    15.1705   ZX=   -36.5120
   XY=    15.4019   YY=   -39.1755   ZY=   -61.6351
   XZ=   -37.4455   YZ=   -65.9348   ZZ=   141.9456
   Eigenvalues:   -59.4930    40.7798   175.2434
     22  C    Isotropic =    50.7385   Anisotropy =   186.2534
   XX=   -13.6138   YX=    59.3849   ZX=   -51.1532
   XY=    56.4587   YY=    17.7695   ZY=   -22.7514
   XZ=   -55.3686   YZ=   -25.6205   ZZ=   148.0597
   Eigenvalues:   -61.9717    39.2797   174.9074
     23  C    Isotropic =    49.4775   Anisotropy =   186.7672
   XX=    49.2484   YX=    22.3992   ZX=   -39.7551
   XY=    15.8302   YY=   -44.5506   ZY=   -50.2679
   XZ=   -38.2839   YZ=   -62.5375   ZZ=   143.7347
   Eigenvalues:   -60.7856    35.2291   173.9890
     24  H    Isotropic =    23.7953   Anisotropy =    10.1954
   XX=    24.1315   YX=    -4.1586   ZX=     1.0903
   XY=    -3.3160   YY=    25.8089   ZY=     2.5191
   XZ=    -2.3652   YZ=     6.5033   ZZ=    21.4456
   Eigenvalues:    18.1788    22.6149    30.5923
     25  H    Isotropic =    23.7756   Anisotropy =     9.1550
   XX=    28.9261   YX=     0.1924   ZX=    -2.4365
   XY=     2.3352   YY=    22.3980   ZY=     0.2421
   XZ=    -3.3189   YZ=     2.1479   ZZ=    20.0025
   Eigenvalues:    18.5561    22.8917    29.8789
     26  H    Isotropic =    24.1625   Anisotropy =     5.3415
   XX=    25.1331   YX=     0.2836   ZX=    -0.2710
   XY=     1.1624   YY=    26.9536   ZY=     1.7732
   XZ=    -0.6290   YZ=     2.5355   ZZ=    20.4008
   Eigenvalues:    19.6807    25.0833    27.7235
     27  H    Isotropic =    29.8682   Anisotropy =     9.0306
   XX=    27.4209   YX=    -0.3636   ZX=     0.1246
   XY=     0.0952   YY=    27.0122   ZY=     1.3049
   XZ=     0.1764   YZ=     3.7360   ZZ=    35.1714
   Eigenvalues:    26.2712    27.4448    35.8886
     28  H    Isotropic =    29.3216   Anisotropy =     9.2133
   XX=    29.8459   YX=    -3.0998   ZX=    -0.4613
   XY=    -3.1446   YY=    33.1372   ZY=     2.0641
   XZ=    -0.6533   YZ=     2.2826   ZZ=    24.9816
   Eigenvalues:    24.4278    28.0731    35.4638
     29  H    Isotropic =    29.1415   Anisotropy =     6.5022
   XX=    22.8294   YX=     0.8601   ZX=    -0.0239
   XY=     0.9888   YY=    31.1342   ZY=    -0.3178
   XZ=    -0.2030   YZ=    -0.0226   ZZ=    33.4608
   Eigenvalues:    22.7269    31.2212    33.4763
     30  H    Isotropic =    30.1507   Anisotropy =     9.9054
   XX=    28.5275   YX=    -3.2416   ZX=     1.8230
   XY=    -2.6225   YY=    32.0708   ZY=    -2.7639
   XZ=     2.1580   YZ=    -5.4828   ZZ=    29.8539
   Eigenvalues:    26.6043    27.0936    36.7543
     31  H    Isotropic =    23.1346   Anisotropy =    10.1170
   XX=    22.5858   YX=     2.8615   ZX=     1.8231
   XY=     3.6261   YY=    24.6375   ZY=     3.7451
   XZ=     2.2274   YZ=     4.8671   ZZ=    22.1804
   Eigenvalues:    18.8768    20.6476    29.8792
     32  H    Isotropic =    23.7333   Anisotropy =     4.1543
   XX=    24.5520   YX=    -1.1504   ZX=     1.3206
   XY=    -1.4822   YY=    25.6041   ZY=     0.8164
   XZ=     0.9929   YZ=     1.1924   ZZ=    21.0437
   Eigenvalues:    20.3413    24.3557    26.5028
     33  H    Isotropic =    23.6941   Anisotropy =     6.3854
   XX=    24.6314   YX=     1.8796   ZX=     2.4736
   XY=     1.2470   YY=    24.9568   ZY=     1.6270
   XZ=     2.8533   YZ=     2.1111   ZZ=    21.4942
   Eigenvalues:    19.8061    23.3252    27.9511
     34  H    Isotropic =    23.0330   Anisotropy =    12.4045
   XX=    28.7277   YX=     0.9623   ZX=     5.2971
   XY=    -0.0301   YY=    20.3777   ZY=     1.1679
   XZ=     5.0507   YZ=     3.2517   ZZ=    19.9937
   Eigenvalues:    16.6761    21.1203    31.3027
     35  H    Isotropic =    24.1730   Anisotropy =    12.0964
   XX=    20.3275   YX=     2.2679   ZX=    -0.2073
   XY=     0.7194   YY=    23.3318   ZY=    -4.8141
   XZ=     2.2861   YZ=    -6.1528   ZZ=    28.8596
   Eigenvalues:    18.3145    21.9671    32.2372
     36  H    Isotropic =    24.5490   Anisotropy =     5.3356
   XX=    23.7512   YX=     2.3039   ZX=     0.6577
   XY=     0.8734   YY=    22.1929   ZY=    -0.9014
   XZ=     0.9748   YZ=    -2.0043   ZZ=    27.7029
   Eigenvalues:    20.8010    24.7399    28.1061
     37  H    Isotropic =    24.8705   Anisotropy =     3.7747
   XX=    25.1763   YX=     3.0098   ZX=    -1.2266
   XY=     2.0947   YY=    24.1704   ZY=     0.6766
   XZ=     0.0169   YZ=    -0.7331   ZZ=    25.2647
   Eigenvalues:    22.0308    25.1937    27.3869
     38  H    Isotropic =    25.6253   Anisotropy =     6.5474
   XX=    23.8020   YX=    -0.6466   ZX=    -3.5890
   XY=     0.2429   YY=    25.5116   ZY=    -1.5396
   XZ=    -2.1478   YZ=    -3.0803   ZZ=    27.5621
   Eigenvalues:    21.7520    25.1337    29.9902
     39  H    Isotropic =    26.2937   Anisotropy =     9.1707
   XX=    24.6723   YX=    -4.3970   ZX=     1.7093
   XY=    -1.9838   YY=    25.5696   ZY=    -2.6117
   XZ=     1.4842   YZ=    -4.7862   ZZ=    28.6393
   Eigenvalues:    21.5924    24.8813    32.4075
     40  P    Isotropic =   313.5207   Anisotropy =    46.3647
   XX=   337.5201   YX=    -6.5134   ZX=   -34.9261
   XY=    20.6563   YY=   293.9838   ZY=   -18.0608
   XZ=    12.3262   YZ=   -12.8505   ZZ=   309.0582
   Eigenvalues:   284.3255   311.8061   344.4305
     41  C    Isotropic =    48.2181   Anisotropy =   165.0512
   XX=    34.7256   YX=     6.4249   ZX=   -54.0689
   XY=    16.0460   YY=    -6.7702   ZY=   -36.1572
   XZ=   -68.8993   YZ=   -37.4129   ZZ=   116.6988
   Eigenvalues:   -18.0565     4.4585   158.2522
     42  C    Isotropic =    40.0535   Anisotropy =   191.6510
   XX=    -7.3677   YX=    52.6187   ZX=   -52.4168
   XY=    62.9646   YY=   -11.7849   ZY=   -36.7894
   XZ=   -51.2746   YZ=   -20.9487   ZZ=   139.3132
   Eigenvalues:   -68.6869    21.0267   167.8209
     43  C    Isotropic =    56.7671   Anisotropy =   174.3785
   XX=    -8.4401   YX=     1.7027   ZX=   -79.1155
   XY=     1.9666   YY=    60.0254   ZY=   -41.4318
   XZ=   -88.7320   YZ=   -40.5354   ZZ=   118.7158
   Eigenvalues:   -52.7437    50.0255   173.0194
     44  C    Isotropic =    54.3775   Anisotropy =   177.8486
   XX=    58.8838   YX=     4.7579   ZX=   -51.3895
   XY=     3.4283   YY=   -16.3909   ZY=   -69.7646
   XZ=   -60.9444   YZ=   -62.7696   ZZ=   120.6396
   Eigenvalues:   -46.4867    36.6759   172.9432
     45  C    Isotropic =    42.5388   Anisotropy =   168.4320
   XX=    10.7196   YX=    36.8704   ZX=   -54.5235
   XY=    35.0746   YY=    -4.6604   ZY=   -48.6330
   XZ=   -47.2755   YZ=   -21.9034   ZZ=   121.5573
   Eigenvalues:   -33.9584     6.7481   154.8268
     46  C    Isotropic =    18.1851   Anisotropy =   129.9238
   XX=   -33.9536   YX=    -5.6300   ZX=   -68.9445
   XY=    -5.5395   YY=    24.3214   ZY=   -31.7472
   XZ=   -69.0934   YZ=   -18.7165   ZZ=    64.1876
   Eigenvalues:   -72.4608    22.2152   104.8010
     47  C    Isotropic =    41.0101   Anisotropy =   208.3595
   XX=   115.6132   YX=   -75.6421   ZX=   -35.8950
   XY=   -87.9127   YY=    26.0485   ZY=    55.2531
   XZ=   -33.2316   YZ=    46.3049   ZZ=   -18.6314
   Eigenvalues:   -54.1869    -2.6992   179.9164
     48  C    Isotropic =    46.9789   Anisotropy =   199.9327
   XX=    94.1305   YX=  -115.0682   ZX=   -33.0079
   XY=  -104.3073   YY=    11.5312   ZY=    10.8120
   XZ=   -41.9272   YZ=    16.0704   ZZ=    35.2749
   Eigenvalues:   -65.4902    26.1595   180.2674
     49  C    Isotropic =    52.0616   Anisotropy =   187.8673
   XX=   105.1525   YX=   -70.0239   ZX=   -73.0645
   XY=   -67.8319   YY=    71.9803   ZY=     0.7117
   XZ=   -73.5227   YZ=    -0.9192   ZZ=   -20.9478
   Eigenvalues:   -61.8559    40.7343   177.3065
     50  C    Isotropic =    49.7936   Anisotropy =   194.7475
   XX=   127.5526   YX=   -64.5353   ZX=   -27.2048
   XY=   -70.6544   YY=    35.1766   ZY=    65.8572
   XZ=   -27.2493   YZ=    64.8047   ZZ=   -13.3485
   Eigenvalues:   -60.5076    30.2630   179.6253
     51  C    Isotropic =    51.5593   Anisotropy =   193.0439
   XX=    96.6187   YX=  -105.6287   ZX=   -36.4939
   XY=  -104.6147   YY=    12.9876   ZY=    17.4031
   XZ=   -37.7021   YZ=    18.5276   ZZ=    45.0716
   Eigenvalues:   -58.6985    33.1211   180.2552
     52  C    Isotropic =    39.1914   Anisotropy =   197.5457
   XX=    89.3362   YX=   -81.3658   ZX=   -73.6761
   XY=   -68.5515   YY=    66.3988   ZY=     0.0252
   XZ=   -71.4711   YZ=     9.9753   ZZ=   -38.1607
   Eigenvalues:   -76.8735    23.5592   170.8885
     53  C    Isotropic =    31.5943   Anisotropy =   202.7171
   XX=     2.1573   YX=    54.6513   ZX=    78.8878
   XY=    44.0889   YY=     2.5649   ZY=    57.9226
   XZ=    75.9169   YZ=    50.7637   ZZ=    90.0608
   Eigenvalues:   -51.7076   -20.2485   166.7390
     54  C    Isotropic =    49.7973   Anisotropy =   185.2221
   XX=    53.5450   YX=    43.3094   ZX=    39.1462
   XY=    56.5983   YY=   -18.4690   ZY=    72.1690
   XZ=    34.6316   YZ=    77.4361   ZZ=   114.3160
   Eigenvalues:   -61.2824    37.3956   173.2787
     55  C    Isotropic =    55.1454   Anisotropy =   180.6989
   XX=    -4.3439   YX=    53.9357   ZX=    72.4907
   XY=    53.8647   YY=    53.3023   ZY=    34.0369
   XZ=    74.9632   YZ=    32.6333   ZZ=   116.4777
   Eigenvalues:   -52.2056    42.0304   175.6113
     56  C    Isotropic =    53.2277   Anisotropy =   183.2479
   XX=    37.9069   YX=    -6.7655   ZX=    78.7632
   XY=    -5.7842   YY=    34.9981   ZY=    78.3241
   XZ=    81.1567   YZ=    82.5997   ZZ=    86.7779
   Eigenvalues:   -58.4529    42.7429   175.3929
     57  C    Isotropic =    52.4127   Anisotropy =   183.1218
   XX=    57.8348   YX=    54.2538   ZX=    35.2413
   XY=    54.0631   YY=   -17.2803   ZY=    71.4381
   XZ=    38.1923   YZ=    70.0544   ZZ=   116.6835
   Eigenvalues:   -59.7851    42.5292   174.4939
     58  C    Isotropic =    47.8001   Anisotropy =   192.0720
   XX=    37.8579   YX=     3.4251   ZX=    75.8816
   XY=    -5.9678   YY=    25.4685   ZY=    83.3604
   XZ=    86.5965   YZ=    87.9551   ZZ=    80.0740
   Eigenvalues:   -65.8324    33.3846   175.8482
     59  H    Isotropic =    23.7002   Anisotropy =    10.4128
   XX=    23.4959   YX=     5.3960   ZX=     2.8015
   XY=     2.2628   YY=    24.7670   ZY=     4.5281
   XZ=    -0.3590   YZ=     4.9405   ZZ=    22.8376
   Eigenvalues:    18.3883    22.0702    30.6421
     60  H    Isotropic =    23.6278   Anisotropy =     9.3124
   XX=    27.8501   YX=    -2.0856   ZX=     2.8743
   XY=    -3.3911   YY=    22.8047   ZY=    -0.2159
   XZ=     3.5979   YZ=     1.6282   ZZ=    20.2284
   Eigenvalues:    18.3804    22.6669    29.8360
     61  H    Isotropic =    23.9402   Anisotropy =     5.5612
   XX=    23.9810   YX=    -0.3306   ZX=     1.4206
   XY=    -0.9621   YY=    27.0165   ZY=     1.9179
   XZ=     0.7263   YZ=     2.1305   ZZ=    20.8231
   Eigenvalues:    19.8618    24.3112    27.6477
     62  H    Isotropic =    29.2764   Anisotropy =     8.9933
   XX=    31.1233   YX=     2.9752   ZX=     1.2443
   XY=     3.5948   YY=    31.6846   ZY=     2.0406
   XZ=     1.1573   YZ=     2.3080   ZZ=    25.0213
   Eigenvalues:    24.3658    28.1915    35.2719
     63  H    Isotropic =    30.1387   Anisotropy =     9.7407
   XX=    30.0851   YX=     3.7031   ZX=    -1.9935
   XY=     3.3053   YY=    30.6641   ZY=    -2.2232
   XZ=    -3.2837   YZ=    -4.7826   ZZ=    29.6670
   Eigenvalues:    26.5241    27.2595    36.6325
     64  H    Isotropic =    23.7889   Anisotropy =    12.2936
   XX=    26.8099   YX=    -0.4454   ZX=    -6.3033
   XY=    -0.3073   YY=    19.6043   ZY=     0.3996
   XZ=    -5.5923   YZ=     1.8454   ZZ=    24.9524
   Eigenvalues:    19.0616    20.3204    31.9846
     65  H    Isotropic =    24.9239   Anisotropy =    15.7876
   XX=    29.0831   YX=    -5.4748   ZX=    -6.7667
   XY=    -6.6556   YY=    24.4673   ZY=     4.1871
   XZ=    -3.2601   YZ=     0.8859   ZZ=    21.2211
   Eigenvalues:    18.7228    20.5999    35.4489
     66  H    Isotropic =    23.9841   Anisotropy =    11.8706
   XX=    20.0951   YX=     2.6838   ZX=     0.6219
   XY=    -1.3171   YY=    23.1267   ZY=    -3.5878
   XZ=     2.1796   YZ=    -6.8124   ZZ=    28.7305
   Eigenvalues:    18.7258    21.3287    31.8978
     67  H    Isotropic =    24.2284   Anisotropy =     5.9822
   XX=    23.0634   YX=     2.1382   ZX=     0.8065
   XY=     0.8406   YY=    25.0976   ZY=    -2.9034
   XZ=     0.2308   YZ=    -3.6531   ZZ=    24.5243
   Eigenvalues:    20.6835    23.7853    28.2166
     68  H    Isotropic =    24.3430   Anisotropy =     3.2743
   XX=    24.2633   YX=     0.8354   ZX=     2.9093
   XY=     0.6743   YY=    24.9360   ZY=    -0.3472
   XZ=     1.8807   YZ=    -0.3222   ZZ=    23.8296
   Eigenvalues:    21.4754    25.0277    26.5258
     69  H    Isotropic =    24.6706   Anisotropy =     4.9066
   XX=    23.0122   YX=    -2.3755   ZX=     0.7216
   XY=    -1.3162   YY=    25.6434   ZY=    -1.4766
   XZ=     1.1662   YZ=    -1.7482   ZZ=    25.3562
   Eigenvalues:    22.0571    24.0131    27.9417
     70  H    Isotropic =    23.5673   Anisotropy =     6.1159
   XX=    25.2079   YX=     1.6060   ZX=    -3.0754
   XY=     0.2827   YY=    26.2664   ZY=    -0.4900
   XZ=    -0.9506   YZ=    -3.1789   ZZ=    19.2277
   Eigenvalues:    18.3278    24.7296    27.6446
     71  H    Isotropic =    24.2380   Anisotropy =     7.3371
   XX=    26.9914   YX=    -0.9705   ZX=    -3.7820
   XY=    -1.3181   YY=    23.1346   ZY=    -0.0975
   XZ=    -3.3757   YZ=    -0.2898   ZZ=    22.5879
   Eigenvalues:    20.3883    23.1962    29.1294
     72  H    Isotropic =    24.1752   Anisotropy =     3.5594
   XX=    24.2897   YX=    -0.4771   ZX=    -1.9921
   XY=    -0.5552   YY=    25.4366   ZY=    -1.9024
   XZ=    -1.5444   YZ=    -1.9714   ZZ=    22.7994
   Eigenvalues:    20.8277    25.1498    26.5482
     73  H    Isotropic =    24.0130   Anisotropy =     6.1351
   XX=    25.6564   YX=    -2.5792   ZX=    -2.0664
   XY=    -2.6121   YY=    24.2203   ZY=    -0.2679
   XZ=    -2.1592   YZ=     0.0969   ZZ=    22.1624
   Eigenvalues:    20.6465    23.2895    28.1031
     74  H    Isotropic =    23.4923   Anisotropy =     6.1082
   XX=    26.3641   YX=     0.3907   ZX=     2.5283
   XY=     0.5183   YY=    22.7339   ZY=     0.8888
   XZ=     2.5523   YZ=     1.0711   ZZ=    21.3789
   Eigenvalues:    20.1043    22.8081    27.5644
 End of Minotr F.D. properties file   721 does not exist.
 End of Minotr F.D. properties file   722 does not exist.
 End of Minotr F.D. properties file   788 does not exist.

 **********************************************************************

            Population analysis using the SCF density.

 **********************************************************************

 Orbital symmetries:
       Occupied  (A) (A) (A) (A) (A) (A) (A) (A) (A) (A) (A) (A)
                 (A) (A) (A) (A) (A) (A) (A) (A) (A) (A) (A) (A)
                 (A) (A) (A) (A) (A) (A) (A) (A) (A) (A) (A) (A)
                 (A) (A) (A) (A) (A) (A) (A) (A) (A) (A) (A) (A)
                 (A) (A) (A) (A) (A) (A) (A) (A) (A) (A) (A) (A)
                 (A) (A) (A) (A) (A) (A) (A) (A) (A) (A) (A) (A)
                 (A) (A) (A) (A) (A) (A) (A) (A) (A) (A) (A) (A)
                 (A) (A) (A) (A) (A) (A) (A) (A) (A) (A) (A) (A)
                 (A) (A) (A) (A) (A) (A) (A) (A) (A) (A) (A) (A)
                 (A) (A) (A) (A) (A) (A) (A) (A) (A) (A) (A) (A)
                 (A) (A) (A) (A) (A) (A) (A) (A) (A) (A) (A) (A)
                 (A) (A) (A) (A) (A) (A) (A) (A) (A) (A) (A) (A)
                 (A) (A) (A) (A) (A) (A) (A) (A)
       Virtual   (A) (A) (A) (A) (A) (A) (A) (A) (A) (A) (A) (A)
                 (A) (A) (A) (A) (A) (A) (A) (A) (A) (A) (A) (A)
                 (A) (A) (A) (A) (A) (A) (A) (A) (A) (A) (A) (A)
                 (A) (A) (A) (A) (A) (A) (A) (A) (A) (A) (A) (A)
                 (A) (A) (A) (A) (A) (A) (A) (A) (A) (A) (A) (A)
                 (A) (A) (A) (A) (A) (A) (A) (A) (A) (A) (A) (A)
                 (A) (A) (A) (A) (A) (A) (A) (A) (A) (A) (A) (A)
                 (A) (A) (A) (A) (A) (A) (A) (A) (A) (A) (A) (A)
                 (A) (A) (A) (A) (A) (A) (A) (A) (A) (A) (A) (A)
                 (A) (A) (A) (A) (A) (A) (A) (A) (A) (A) (A) (A)
                 (A) (A) (A) (A) (A) (A) (A) (A) (A) (A) (A) (A)
                 (A) (A) (A) (A) (A) (A) (A) (A) (A) (A) (A) (A)
                 (A) (A) (A) (A) (A) (A) (A) (A) (A) (A) (A) (A)
                 (A) (A) (A) (A) (A) (A) (A) (A) (A) (A) (A) (A)
                 (A) (A) (A) (A) (A) (A) (A) (A) (A) (A) (A) (A)
                 (A) (A) (A) (A) (A) (A) (A) (A) (A) (A) (A) (A)
                 (A) (A) (A) (A) (A) (A) (A) (A) (A) (A) (A) (A)
                 (A) (A) (A) (A) (A) (A) (A) (A) (A) (A) (A) (A)
                 (A) (A) (A) (A) (A) (A) (A) (A) (A) (A) (A) (A)
                 (A) (A) (A) (A) (A) (A) (A) (A) (A) (A) (A) (A)
                 (A) (A) (A) (A) (A) (A) (A) (A) (A) (A) (A) (A)
                 (A) (A) (A) (A) (A) (A) (A) (A) (A) (A) (A) (A)
                 (A) (A) (A) (A) (A) (A) (A) (A) (A) (A) (A) (A)
                 (A) (A) (A) (A) (A) (A) (A) (A) (A) (A) (A) (A)
                 (A) (A) (A) (A) (A) (A) (A) (A) (A) (A) (A) (A)
                 (A) (A) (A) (A) (A) (A) (A) (A) (A) (A) (A) (A)
                 (A) (A) (A) (A) (A) (A) (A) (A) (A) (A) (A) (A)
                 (A) (A) (A) (A) (A) (A) (A) (A) (A) (A) (A) (A)
                 (A) (A) (A) (A) (A) (A) (A) (A) (A) (A) (A) (A)
                 (A) (A) (A) (A) (A) (A) (A) (A) (A) (A) (A) (A)
                 (A) (A) (A) (A) (A) (A) (A) (A) (A) (A) (A) (A)
                 (A) (A) (A) (A) (A) (A) (A) (A) (A) (A) (A) (A)
                 (A) (A) (A) (A) (A) (A) (A) (A) (A) (A) (A) (A)
                 (A) (A) (A) (A) (A) (A) (A) (A) (A) (A) (A) (A)
                 (A) (A) (A) (A) (A) (A) (A) (A) (A) (A) (A) (A)
                 (A) (A) (A) (A) (A) (A) (A) (A) (A) (A) (A) (A)
                 (A) (A) (A) (A) (A) (A) (A) (A) (A) (A) (A) (A)
                 (A) (A) (A) (A) (A) (A) (A) (A) (A) (A) (A) (A)
                 (A) (A) (A) (A) (A) (A) (A) (A) (A) (A) (A) (A)
                 (A) (A) (A) (A) (A) (A) (A) (A) (A) (A) (A) (A)
                 (A) (A) (A) (A) (A) (A) (A) (A) (A) (A) (A) (A)
                 (A) (A) (A) (A) (A) (A) (A) (A) (A) (A) (A) (A)
                 (A) (A) (A) (A) (A) (A) (A) (A) (A) (A) (A) (A)
                 (A) (A) (A) (A) (A) (A) (A) (A) (A) (A) (A) (A)
                 (A) (A) (A) (A) (A) (A) (A) (A) (A) (A) (A) (A)
                 (A) (A) (A) (A) (A) (A) (A) (A) (A) (A) (A) (A)
                 (A) (A) (A) (A) (A) (A) (A) (A) (A) (A) (A) (A)
                 (A) (A) (A) (A) (A) (A) (A) (A) (A) (A) (A) (A)
                 (A) (A) (A) (A) (A) (A) (A) (A) (A) (A) (A) (A)
                 (A) (A) (A) (A) (A) (A) (A) (A) (A) (A) (A) (A)
                 (A) (A) (A) (A) (A) (A) (A) (A) (A) (A) (A) (A)
                 (A) (A) (A) (A) (A) (A) (A) (A) (A) (A) (A) (A)
                 (A) (A) (A) (A) (A) (A) (A) (A) (A) (A) (A) (A)
                 (A) (A) (A) (A) (A) (A) (A) (A) (A) (A) (A) (A)
                 (A) (A) (A) (A) (A) (A) (A) (A) (A) (A) (A) (A)
                 (A) (A) (A) (A) (A) (A) (A) (A) (A) (A) (A) (A)
                 (A) (A) (A) (A) (A) (A) (A) (A) (A) (A) (A) (A)
                 (A) (A) (A) (A) (A) (A) (A) (A) (A) (A) (A) (A)
                 (A) (A) (A) (A) (A) (A) (A) (A) (A) (A) (A) (A)
                 (A) (A) (A) (A) (A) (A) (A) (A) (A) (A) (A) (A)
                 (A) (A) (A) (A) (A) (A) (A) (A) (A) (A) (A) (A)
                 (A) (A) (A) (A) (A) (A) (A) (A) (A) (A) (A) (A)
                 (A) (A) (A) (A) (A) (A) (A) (A) (A) (A) (A) (A)
                 (A) (A) (A) (A) (A) (A) (A) (A) (A) (A) (A) (A)
                 (A) (A) (A) (A) (A) (A) (A) (A) (A) (A) (A) (A)
                 (A) (A) (A) (A) (A) (A) (A) (A) (A) (A) (A) (A)
                 (A) (A) (A) (A) (A) (A) (A) (A) (A) (A) (A) (A)
                 (A) (A) (A) (A) (A) (A) (A) (A) (A) (A) (A) (A)
                 (A) (A) (A) (A) (A) (A) (A) (A) (A) (A) (A) (A)
                 (A) (A) (A) (A) (A) (A) (A) (A) (A) (A) (A) (A)
                 (A) (A) (A) (A) (A) (A) (A) (A) (A) (A) (A) (A)
                 (A) (A) (A) (A) (A) (A) (A) (A) (A) (A) (A) (A)
                 (A) (A) (A) (A) (A) (A) (A) (A) (A) (A) (A) (A)
                 (A) (A) (A) (A) (A) (A) (A) (A) (A) (A) (A) (A)
                 (A) (A) (A) (A) (A) (A) (A) (A) (A) (A) (A) (A)
                 (A) (A) (A) (A) (A) (A) (A) (A) (A) (A) (A) (A)
                 (A) (A) (A) (A) (A) (A) (A) (A) (A) (A) (A) (A)
                 (A) (A) (A) (A) (A) (A) (A) (A) (A) (A) (A) (A)
                 (A) (A) (A) (A) (A) (A) (A) (A) (A) (A) (A) (A)
                 (A) (A) (A) (A) (A) (A) (A) (A) (A) (A) (A) (A)
                 (A) (A) (A) (A) (A) (A) (A) (A) (A) (A) (A) (A)
                 (A) (A) (A) (A) (A) (A) (A) (A) (A) (A) (A) (A)
                 (A) (A) (A) (A) (A) (A) (A) (A) (A) (A) (A) (A)
                 (A) (A) (A) (A) (A) (A) (A) (A) (A) (A) (A) (A)
                 (A) (A) (A) (A) (A) (A) (A) (A) (A) (A) (A) (A)
                 (A) (A) (A) (A) (A) (A) (A) (A) (A) (A) (A) (A)
                 (A) (A) (A) (A) (A) (A) (A) (A) (A) (A) (A) (A)
                 (A) (A) (A) (A) (A) (A) (A) (A) (A) (A) (A) (A)
                 (A) (A) (A) (A) (A) (A) (A) (A) (A) (A) (A) (A)
                 (A) (A) (A) (A) (A) (A) (A) (A) (A) (A) (A) (A)
                 (A) (A) (A) (A) (A) (A) (A) (A) (A) (A) (A) (A)
                 (A) (A) (A) (A) (A) (A) (A) (A) (A) (A) (A) (A)
                 (A) (A) (A) (A) (A) (A) (A) (A) (A) (A) (A) (A)
                 (A) (A) (A) (A) (A) (A) (A) (A) (A) (A) (A) (A)
                 (A) (A) (A) (A) (A) (A) (A) (A) (A) (A) (A) (A)
                 (A) (A) (A) (A) (A) (A) (A) (A) (A) (A) (A) (A)
                 (A) (A) (A) (A) (A) (A) (A) (A) (A) (A) (A) (A)
                 (A) (A) (A) (A) (A) (A) (A) (A) (A) (A) (A) (A)
                 (A) (A) (A) (A) (A) (A) (A) (A) (A) (A) (A) (A)
                 (A) (A) (A) (A) (A) (A) (A) (A) (A) (A) (A) (A)
                 (A) (A) (A) (A) (A) (A) (A) (A) (A) (A) (A) (A)
                 (A) (A) (A) (A) (A) (A) (A) (A) (A) (A) (A) (A)
                 (A) (A) (A) (A) (A) (A) (A) (A) (A) (A) (A) (A)
                 (A) (A) (A) (A) (A) (A) (A) (A) (A) (A) (A) (A)
                 (A) (A) (A) (A) (A) (A) (A) (A) (A) (A) (A) (A)
                 (A) (A) (A) (A) (A) (A) (A) (A) (A) (A) (A) (A)
                 (A) (A) (A) (A) (A) (A) (A) (A) (A) (A) (A) (A)
                 (A) (A) (A) (A) (A) (A) (A) (A) (A) (A) (A) (A)
                 (A) (A) (A) (A) (A) (A) (A) (A) (A) (A) (A) (A)
                 (A) (A) (A) (A) (A) (A) (A) (A) (A) (A) (A) (A)
                 (A) (A) (A) (A) (A) (A) (A) (A) (A) (A) (A) (A)
                 (A) (A) (A) (A) (A) (A) (A) (A) (A) (A) (A) (A)
                 (A) (A) (A) (A) (A) (A) (A) (A) (A) (A)
 The electronic state is 1-A.
 Alpha  occ. eigenvalues --  -77.20243 -77.19764 -19.25135 -10.29703 -10.29649
 Alpha  occ. eigenvalues --  -10.26865 -10.24832 -10.24779 -10.24496 -10.24316
 Alpha  occ. eigenvalues --  -10.24284 -10.24259 -10.24175 -10.23946 -10.23785
 Alpha  occ. eigenvalues --  -10.23586 -10.23575 -10.23518 -10.23468 -10.23453
 Alpha  occ. eigenvalues --  -10.23400 -10.23399 -10.23375 -10.23328 -10.23289
 Alpha  occ. eigenvalues --  -10.23113 -10.23090 -10.22922 -10.22914 -10.22854
 Alpha  occ. eigenvalues --  -10.22736 -10.22595 -10.22533 -10.22491 -10.22405
 Alpha  occ. eigenvalues --  -10.22373 -10.22355 -10.22330 -10.22297 -10.22230
 Alpha  occ. eigenvalues --  -10.22211 -10.22181  -6.59791  -6.59318  -4.73409
 Alpha  occ. eigenvalues --   -4.73355  -4.72935  -4.72915  -4.72885  -4.72440
 Alpha  occ. eigenvalues --   -1.11969  -0.89492  -0.89257  -0.88187  -0.87803
 Alpha  occ. eigenvalues --   -0.87071  -0.86831  -0.84680  -0.79712  -0.78854
 Alpha  occ. eigenvalues --   -0.78330  -0.77227  -0.76896  -0.76579  -0.76300
 Alpha  occ. eigenvalues --   -0.76031  -0.75784  -0.75726  -0.75518  -0.74875
 Alpha  occ. eigenvalues --   -0.71667  -0.67500  -0.66792  -0.65374  -0.65265
 Alpha  occ. eigenvalues --   -0.62728  -0.62215  -0.61853  -0.61696  -0.61111
 Alpha  occ. eigenvalues --   -0.60970  -0.60788  -0.60477  -0.58141  -0.57524
 Alpha  occ. eigenvalues --   -0.56448  -0.55825  -0.52907  -0.52712  -0.51937
 Alpha  occ. eigenvalues --   -0.51320  -0.50723  -0.49677  -0.49222  -0.48079
 Alpha  occ. eigenvalues --   -0.47616  -0.46862  -0.46623  -0.46480  -0.46432
 Alpha  occ. eigenvalues --   -0.46221  -0.45840  -0.45697  -0.45546  -0.45448
 Alpha  occ. eigenvalues --   -0.45289  -0.43657  -0.43146  -0.42868  -0.42787
 Alpha  occ. eigenvalues --   -0.42590  -0.42383  -0.42059  -0.41687  -0.41469
 Alpha  occ. eigenvalues --   -0.40470  -0.40370  -0.39670  -0.39383  -0.39125
 Alpha  occ. eigenvalues --   -0.38699  -0.38494  -0.38176  -0.37916  -0.37628
 Alpha  occ. eigenvalues --   -0.37098  -0.36257  -0.36166  -0.35926  -0.35434
 Alpha  occ. eigenvalues --   -0.35230  -0.35213  -0.34788  -0.34598  -0.33410
 Alpha  occ. eigenvalues --   -0.33156  -0.33004  -0.32113  -0.29719  -0.28159
 Alpha  occ. eigenvalues --   -0.27594  -0.27292  -0.26927  -0.26825  -0.26465
 Alpha  occ. eigenvalues --   -0.26396  -0.25840  -0.25282  -0.24885  -0.24232
 Alpha  occ. eigenvalues --   -0.22394  -0.19810
 Alpha virt. eigenvalues --   -0.04089  -0.02891  -0.02388  -0.01896  -0.01741
 Alpha virt. eigenvalues --   -0.01472  -0.01226  -0.00924  -0.00684  -0.00207
 Alpha virt. eigenvalues --    0.00235   0.00621   0.03942   0.04204   0.05067
 Alpha virt. eigenvalues --    0.05580   0.06070   0.06107   0.06567   0.07253
 Alpha virt. eigenvalues --    0.07471   0.07707   0.07950   0.08215   0.08551
 Alpha virt. eigenvalues --    0.08937   0.09175   0.09467   0.09971   0.10113
 Alpha virt. eigenvalues --    0.10169   0.10401   0.11049   0.11101   0.11138
 Alpha virt. eigenvalues --    0.11281   0.11606   0.11826   0.12134   0.12492
 Alpha virt. eigenvalues --    0.12720   0.12949   0.13055   0.13294   0.13563
 Alpha virt. eigenvalues --    0.13731   0.13907   0.14061   0.14537   0.14649
 Alpha virt. eigenvalues --    0.15114   0.15283   0.15803   0.15925   0.16239
 Alpha virt. eigenvalues --    0.16531   0.16768   0.17098   0.17632   0.18148
 Alpha virt. eigenvalues --    0.18569   0.18618   0.18787   0.19212   0.19361
 Alpha virt. eigenvalues --    0.19954   0.20258   0.20577   0.20771   0.21471
 Alpha virt. eigenvalues --    0.21591   0.21875   0.22105   0.22227   0.22389
 Alpha virt. eigenvalues --    0.22600   0.23029   0.23209   0.23260   0.23497
 Alpha virt. eigenvalues --    0.23781   0.23853   0.24039   0.24168   0.24466
 Alpha virt. eigenvalues --    0.24619   0.25043   0.25098   0.25224   0.25400
 Alpha virt. eigenvalues --    0.25572   0.25976   0.26140   0.26316   0.26663
 Alpha virt. eigenvalues --    0.27041   0.27235   0.27418   0.27545   0.27810
 Alpha virt. eigenvalues --    0.27998   0.28417   0.28586   0.28768   0.28945
 Alpha virt. eigenvalues --    0.29002   0.29264   0.29719   0.29970   0.30093
 Alpha virt. eigenvalues --    0.30484   0.30802   0.31044   0.31554   0.31785
 Alpha virt. eigenvalues --    0.31854   0.32187   0.32328   0.32682   0.32894
 Alpha virt. eigenvalues --    0.33374   0.33541   0.33882   0.34178   0.34388
 Alpha virt. eigenvalues --    0.34549   0.35165   0.35296   0.35506   0.35703
 Alpha virt. eigenvalues --    0.35962   0.36150   0.36322   0.36540   0.36675
 Alpha virt. eigenvalues --    0.37062   0.37173   0.37462   0.37678   0.37964
 Alpha virt. eigenvalues --    0.38024   0.38291   0.38676   0.39031   0.39265
 Alpha virt. eigenvalues --    0.39615   0.39739   0.39970   0.40027   0.40217
 Alpha virt. eigenvalues --    0.40370   0.40808   0.41007   0.41077   0.41412
 Alpha virt. eigenvalues --    0.41488   0.41684   0.41992   0.42286   0.42470
 Alpha virt. eigenvalues --    0.42716   0.42814   0.43300   0.43344   0.43459
 Alpha virt. eigenvalues --    0.43621   0.43779   0.43812   0.44009   0.44094
 Alpha virt. eigenvalues --    0.44469   0.44695   0.44817   0.44994   0.45316
 Alpha virt. eigenvalues --    0.45438   0.45529   0.45642   0.45965   0.46054
 Alpha virt. eigenvalues --    0.46164   0.46478   0.46734   0.46933   0.47073
 Alpha virt. eigenvalues --    0.47345   0.47491   0.47762   0.47987   0.48287
 Alpha virt. eigenvalues --    0.48493   0.48706   0.49061   0.49326   0.49549
 Alpha virt. eigenvalues --    0.49628   0.49882   0.50133   0.50372   0.50616
 Alpha virt. eigenvalues --    0.50845   0.51015   0.51394   0.51615   0.51741
 Alpha virt. eigenvalues --    0.52175   0.52489   0.52733   0.53139   0.53403
 Alpha virt. eigenvalues --    0.53706   0.53804   0.53978   0.54258   0.54397
 Alpha virt. eigenvalues --    0.54777   0.55136   0.55432   0.55674   0.55939
 Alpha virt. eigenvalues --    0.56315   0.56878   0.57201   0.57323   0.57544
 Alpha virt. eigenvalues --    0.58124   0.58479   0.58798   0.59233   0.59743
 Alpha virt. eigenvalues --    0.60032   0.60277   0.60554   0.60893   0.61219
 Alpha virt. eigenvalues --    0.61459   0.61803   0.61943   0.62334   0.63276
 Alpha virt. eigenvalues --    0.63842   0.64107   0.64401   0.64658   0.64958
 Alpha virt. eigenvalues --    0.64966   0.65464   0.65786   0.66296   0.66449
 Alpha virt. eigenvalues --    0.66729   0.66833   0.67270   0.67425   0.67602
 Alpha virt. eigenvalues --    0.68100   0.68445   0.68939   0.68985   0.69319
 Alpha virt. eigenvalues --    0.69766   0.69887   0.70042   0.70541   0.70724
 Alpha virt. eigenvalues --    0.70983   0.71140   0.71317   0.71718   0.71933
 Alpha virt. eigenvalues --    0.72271   0.72579   0.72670   0.72837   0.73067
 Alpha virt. eigenvalues --    0.73213   0.73394   0.73587   0.74087   0.74230
 Alpha virt. eigenvalues --    0.74773   0.74980   0.75511   0.75761   0.75793
 Alpha virt. eigenvalues --    0.76336   0.76723   0.77038   0.77273   0.77529
 Alpha virt. eigenvalues --    0.77618   0.78166   0.78590   0.78843   0.79218
 Alpha virt. eigenvalues --    0.79367   0.79850   0.80047   0.80492   0.80774
 Alpha virt. eigenvalues --    0.81050   0.81523   0.81843   0.82218   0.82266
 Alpha virt. eigenvalues --    0.82991   0.83129   0.83251   0.83529   0.84058
 Alpha virt. eigenvalues --    0.84506   0.84786   0.84985   0.85766   0.85909
 Alpha virt. eigenvalues --    0.86358   0.86527   0.86631   0.86798   0.87294
 Alpha virt. eigenvalues --    0.87720   0.87742   0.88236   0.88437   0.89518
 Alpha virt. eigenvalues --    0.89671   0.90000   0.90524   0.90839   0.91252
 Alpha virt. eigenvalues --    0.91290   0.91950   0.92149   0.92727   0.93070
 Alpha virt. eigenvalues --    0.93311   0.93486   0.93935   0.94409   0.94558
 Alpha virt. eigenvalues --    0.94964   0.95533   0.95901   0.96084   0.96378
 Alpha virt. eigenvalues --    0.96933   0.97075   0.97317   0.97662   0.97849
 Alpha virt. eigenvalues --    0.98505   0.98800   0.99125   0.99244   0.99942
 Alpha virt. eigenvalues --    1.00333   1.00535   1.01351   1.02201   1.02645
 Alpha virt. eigenvalues --    1.03044   1.03166   1.04023   1.04082   1.04470
 Alpha virt. eigenvalues --    1.04889   1.05619   1.05902   1.06127   1.06572
 Alpha virt. eigenvalues --    1.06979   1.07629   1.07816   1.08392   1.09221
 Alpha virt. eigenvalues --    1.09810   1.10297   1.10717   1.10798   1.11008
 Alpha virt. eigenvalues --    1.11469   1.11804   1.11950   1.12449   1.12780
 Alpha virt. eigenvalues --    1.12999   1.13172   1.13578   1.13883   1.14025
 Alpha virt. eigenvalues --    1.14968   1.15359   1.15696   1.16385   1.16619
 Alpha virt. eigenvalues --    1.17104   1.17317   1.17582   1.18195   1.18783
 Alpha virt. eigenvalues --    1.18979   1.19334   1.19503   1.19789   1.20310
 Alpha virt. eigenvalues --    1.20556   1.20904   1.21600   1.21928   1.22082
 Alpha virt. eigenvalues --    1.22625   1.22660   1.23150   1.23275   1.23687
 Alpha virt. eigenvalues --    1.24185   1.24379   1.24656   1.24946   1.25166
 Alpha virt. eigenvalues --    1.25485   1.26195   1.26469   1.26693   1.26906
 Alpha virt. eigenvalues --    1.27269   1.27663   1.28053   1.28347   1.28469
 Alpha virt. eigenvalues --    1.28605   1.28970   1.29293   1.29353   1.29633
 Alpha virt. eigenvalues --    1.29971   1.30665   1.31079   1.31178   1.31729
 Alpha virt. eigenvalues --    1.31982   1.32321   1.32514   1.33079   1.33181
 Alpha virt. eigenvalues --    1.33812   1.33904   1.34269   1.34782   1.35029
 Alpha virt. eigenvalues --    1.35437   1.35713   1.36138   1.36995   1.37266
 Alpha virt. eigenvalues --    1.37971   1.38282   1.38823   1.39578   1.39863
 Alpha virt. eigenvalues --    1.40353   1.41029   1.41038   1.41708   1.42078
 Alpha virt. eigenvalues --    1.42661   1.43064   1.43554   1.43859   1.44621
 Alpha virt. eigenvalues --    1.44945   1.45324   1.45556   1.45768   1.46452
 Alpha virt. eigenvalues --    1.46686   1.47484   1.47944   1.48259   1.48579
 Alpha virt. eigenvalues --    1.48847   1.49038   1.49424   1.49829   1.50245
 Alpha virt. eigenvalues --    1.50685   1.51041   1.51257   1.51893   1.52396
 Alpha virt. eigenvalues --    1.52576   1.53309   1.53378   1.53599   1.54166
 Alpha virt. eigenvalues --    1.54589   1.55192   1.55493   1.55750   1.55810
 Alpha virt. eigenvalues --    1.56095   1.56551   1.56735   1.57135   1.57188
 Alpha virt. eigenvalues --    1.57706   1.57965   1.58124   1.58272   1.58592
 Alpha virt. eigenvalues --    1.58892   1.59336   1.59569   1.60218   1.60821
 Alpha virt. eigenvalues --    1.61315   1.61495   1.61811   1.62158   1.62348
 Alpha virt. eigenvalues --    1.62896   1.63103   1.63498   1.63833   1.64061
 Alpha virt. eigenvalues --    1.64746   1.65117   1.65266   1.65407   1.65670
 Alpha virt. eigenvalues --    1.65899   1.66174   1.66662   1.67051   1.67332
 Alpha virt. eigenvalues --    1.67665   1.67796   1.67875   1.68204   1.68680
 Alpha virt. eigenvalues --    1.68974   1.69186   1.69803   1.69999   1.70635
 Alpha virt. eigenvalues --    1.70763   1.71131   1.71402   1.71618   1.72072
 Alpha virt. eigenvalues --    1.72216   1.72750   1.72841   1.72941   1.73156
 Alpha virt. eigenvalues --    1.73688   1.73981   1.74257   1.74574   1.74676
 Alpha virt. eigenvalues --    1.74958   1.75392   1.75517   1.76046   1.76356
 Alpha virt. eigenvalues --    1.77091   1.77327   1.78040   1.78341   1.78670
 Alpha virt. eigenvalues --    1.79321   1.79648   1.79972   1.80363   1.80867
 Alpha virt. eigenvalues --    1.81113   1.81408   1.82152   1.82799   1.83086
 Alpha virt. eigenvalues --    1.83287   1.83725   1.84343   1.84627   1.85247
 Alpha virt. eigenvalues --    1.85323   1.85963   1.86072   1.86702   1.87422
 Alpha virt. eigenvalues --    1.87816   1.88294   1.88620   1.88939   1.89249
 Alpha virt. eigenvalues --    1.90094   1.90423   1.90815   1.91427   1.91724
 Alpha virt. eigenvalues --    1.92816   1.93006   1.93765   1.94001   1.94252
 Alpha virt. eigenvalues --    1.94654   1.95390   1.95777   1.96078   1.96547
 Alpha virt. eigenvalues --    1.97360   1.97798   1.98665   1.99053   1.99684
 Alpha virt. eigenvalues --    2.00024   2.00274   2.00881   2.01075   2.01377
 Alpha virt. eigenvalues --    2.02652   2.03313   2.03506   2.04255   2.04321
 Alpha virt. eigenvalues --    2.04789   2.05314   2.05480   2.06185   2.06462
 Alpha virt. eigenvalues --    2.07227   2.07635   2.07929   2.09148   2.09194
 Alpha virt. eigenvalues --    2.09428   2.09807   2.10346   2.10947   2.11138
 Alpha virt. eigenvalues --    2.11734   2.12368   2.12717   2.12793   2.13352
 Alpha virt. eigenvalues --    2.13633   2.13970   2.14236   2.14839   2.15026
 Alpha virt. eigenvalues --    2.15361   2.15652   2.16291   2.16422   2.16715
 Alpha virt. eigenvalues --    2.17339   2.17696   2.17911   2.18445   2.18877
 Alpha virt. eigenvalues --    2.19356   2.19505   2.19795   2.19970   2.20507
 Alpha virt. eigenvalues --    2.21015   2.21133   2.21791   2.22105   2.22303
 Alpha virt. eigenvalues --    2.23200   2.23962   2.24078   2.24648   2.25239
 Alpha virt. eigenvalues --    2.25729   2.25838   2.26667   2.27083   2.27516
 Alpha virt. eigenvalues --    2.27869   2.28316   2.28642   2.29179   2.29580
 Alpha virt. eigenvalues --    2.29926   2.30408   2.30937   2.32091   2.32468
 Alpha virt. eigenvalues --    2.33192   2.34207   2.34454   2.35426   2.36000
 Alpha virt. eigenvalues --    2.37026   2.37935   2.38154   2.39138   2.39923
 Alpha virt. eigenvalues --    2.40550   2.40853   2.41264   2.42120   2.42589
 Alpha virt. eigenvalues --    2.42800   2.43703   2.43764   2.44018   2.44659
 Alpha virt. eigenvalues --    2.45316   2.45509   2.45925   2.46513   2.46934
 Alpha virt. eigenvalues --    2.47438   2.47924   2.48271   2.48892   2.49407
 Alpha virt. eigenvalues --    2.49980   2.50141   2.50431   2.51260   2.52072
 Alpha virt. eigenvalues --    2.52222   2.52914   2.53094   2.53495   2.54244
 Alpha virt. eigenvalues --    2.54538   2.55257   2.55751   2.56034   2.56650
 Alpha virt. eigenvalues --    2.56926   2.57599   2.58437   2.58717   2.59330
 Alpha virt. eigenvalues --    2.59545   2.60081   2.60281   2.60476   2.60689
 Alpha virt. eigenvalues --    2.60908   2.61120   2.61612   2.62118   2.62681
 Alpha virt. eigenvalues --    2.62782   2.62877   2.63450   2.63658   2.63915
 Alpha virt. eigenvalues --    2.64341   2.64510   2.65113   2.65283   2.65339
 Alpha virt. eigenvalues --    2.65623   2.65745   2.65943   2.66566   2.66653
 Alpha virt. eigenvalues --    2.66833   2.67266   2.67403   2.67690   2.68159
 Alpha virt. eigenvalues --    2.68287   2.68646   2.68811   2.68977   2.69285
 Alpha virt. eigenvalues --    2.69548   2.70115   2.70618   2.71196   2.71239
 Alpha virt. eigenvalues --    2.71486   2.71672   2.71852   2.72292   2.72762
 Alpha virt. eigenvalues --    2.72842   2.73246   2.73324   2.73809   2.74265
 Alpha virt. eigenvalues --    2.74434   2.74843   2.75290   2.75529   2.75968
 Alpha virt. eigenvalues --    2.76308   2.76473   2.76877   2.77013   2.77421
 Alpha virt. eigenvalues --    2.77779   2.77956   2.78173   2.78565   2.78912
 Alpha virt. eigenvalues --    2.79256   2.79375   2.79447   2.79869   2.80274
 Alpha virt. eigenvalues --    2.80603   2.80897   2.81094   2.81234   2.81925
 Alpha virt. eigenvalues --    2.82110   2.82531   2.83032   2.83246   2.83477
 Alpha virt. eigenvalues --    2.83724   2.84172   2.84670   2.84856   2.85482
 Alpha virt. eigenvalues --    2.85555   2.85599   2.85836   2.86130   2.86589
 Alpha virt. eigenvalues --    2.86810   2.87092   2.87462   2.87571   2.87872
 Alpha virt. eigenvalues --    2.88150   2.88828   2.89174   2.89383   2.89656
 Alpha virt. eigenvalues --    2.90054   2.90532   2.90893   2.90986   2.91297
 Alpha virt. eigenvalues --    2.91986   2.92247   2.92512   2.92922   2.93083
 Alpha virt. eigenvalues --    2.93538   2.93762   2.94124   2.94441   2.94611
 Alpha virt. eigenvalues --    2.94780   2.95261   2.96108   2.96277   2.97077
 Alpha virt. eigenvalues --    2.97736   2.98140   2.98329   2.99027   2.99547
 Alpha virt. eigenvalues --    2.99900   3.00267   3.00851   3.01755   3.02450
 Alpha virt. eigenvalues --    3.02936   3.03212   3.04087   3.04887   3.05089
 Alpha virt. eigenvalues --    3.05317   3.05911   3.06742   3.06987   3.07305
 Alpha virt. eigenvalues --    3.07647   3.07918   3.08503   3.08667   3.09305
 Alpha virt. eigenvalues --    3.09726   3.10276   3.10718   3.11192   3.11583
 Alpha virt. eigenvalues --    3.12166   3.12569   3.13260   3.13529   3.13819
 Alpha virt. eigenvalues --    3.14136   3.14193   3.14521   3.14695   3.14980
 Alpha virt. eigenvalues --    3.15438   3.15574   3.16121   3.16433   3.16841
 Alpha virt. eigenvalues --    3.17273   3.17365   3.17403   3.17971   3.18334
 Alpha virt. eigenvalues --    3.18567   3.18893   3.19040   3.19353   3.19793
 Alpha virt. eigenvalues --    3.20015   3.20293   3.20482   3.20963   3.21199
 Alpha virt. eigenvalues --    3.21731   3.22005   3.22461   3.22604   3.22736
 Alpha virt. eigenvalues --    3.23452   3.23638   3.23871   3.24444   3.24573
 Alpha virt. eigenvalues --    3.25006   3.25078   3.25424   3.25799   3.25998
 Alpha virt. eigenvalues --    3.26338   3.26682   3.27127   3.27496   3.28021
 Alpha virt. eigenvalues --    3.28438   3.29187   3.29301   3.29509   3.29796
 Alpha virt. eigenvalues --    3.29935   3.30400   3.30911   3.31119   3.31414
 Alpha virt. eigenvalues --    3.32014   3.32102   3.32215   3.32707   3.33116
 Alpha virt. eigenvalues --    3.33531   3.33831   3.34139   3.34154   3.34518
 Alpha virt. eigenvalues --    3.34689   3.34826   3.35223   3.35601   3.36003
 Alpha virt. eigenvalues --    3.36335   3.36382   3.36571   3.37109   3.37456
 Alpha virt. eigenvalues --    3.37768   3.37886   3.38147   3.38199   3.38766
 Alpha virt. eigenvalues --    3.39008   3.39106   3.39682   3.39948   3.40048
 Alpha virt. eigenvalues --    3.40321   3.40643   3.41181   3.41272   3.41404
 Alpha virt. eigenvalues --    3.41733   3.42240   3.42552   3.42827   3.43144
 Alpha virt. eigenvalues --    3.43255   3.43367   3.43895   3.43990   3.44331
 Alpha virt. eigenvalues --    3.44765   3.44891   3.45168   3.45433   3.45911
 Alpha virt. eigenvalues --    3.46195   3.46448   3.46850   3.47124   3.47516
 Alpha virt. eigenvalues --    3.47942   3.48129   3.48461   3.48684   3.48805
 Alpha virt. eigenvalues --    3.49103   3.49665   3.49916   3.50142   3.50631
 Alpha virt. eigenvalues --    3.50966   3.51805   3.51998   3.52190   3.52861
 Alpha virt. eigenvalues --    3.53064   3.53363   3.53427   3.53964   3.54044
 Alpha virt. eigenvalues --    3.54238   3.54330   3.54660   3.54981   3.55183
 Alpha virt. eigenvalues --    3.55510   3.55684   3.56051   3.56207   3.56573
 Alpha virt. eigenvalues --    3.56692   3.57230   3.57595   3.58003   3.58092
 Alpha virt. eigenvalues --    3.58557   3.58696   3.59369   3.59488   3.59618
 Alpha virt. eigenvalues --    3.60345   3.61267   3.61627   3.61944   3.62397
 Alpha virt. eigenvalues --    3.62583   3.64161   3.64483   3.64957   3.65387
 Alpha virt. eigenvalues --    3.65745   3.66274   3.67771   3.68128   3.69097
 Alpha virt. eigenvalues --    3.70173   3.70573   3.70752   3.71479   3.71714
 Alpha virt. eigenvalues --    3.71963   3.72204   3.72916   3.73584   3.74298
 Alpha virt. eigenvalues --    3.74960   3.75710   3.75793   3.76143   3.76376
 Alpha virt. eigenvalues --    3.76682   3.77292   3.77630   3.77993   3.78749
 Alpha virt. eigenvalues --    3.79155   3.79515   3.80162   3.80659   3.81672
 Alpha virt. eigenvalues --    3.82478   3.83195   3.84664   3.86460   3.87744
 Alpha virt. eigenvalues --    3.88777   3.90038   3.90797   3.91577   3.93039
 Alpha virt. eigenvalues --    3.94019   3.94830   3.94928   3.95999   3.96178
 Alpha virt. eigenvalues --    3.96308   3.96750   3.97434   3.98162   3.99149
 Alpha virt. eigenvalues --    3.99602   4.00706   4.01740   4.02326   4.03043
 Alpha virt. eigenvalues --    4.03567   4.04115   4.04947   4.05268   4.05443
 Alpha virt. eigenvalues --    4.05804   4.06479   4.06772   4.07364   4.08066
 Alpha virt. eigenvalues --    4.08644   4.08985   4.09441   4.11248   4.11605
 Alpha virt. eigenvalues --    4.11799   4.12015   4.12416   4.13206   4.13479
 Alpha virt. eigenvalues --    4.13768   4.14291   4.14649   4.15003   4.15703
 Alpha virt. eigenvalues --    4.15955   4.16932   4.17468   4.17634   4.18600
 Alpha virt. eigenvalues --    4.19198   4.19297   4.19548   4.20130   4.20382
 Alpha virt. eigenvalues --    4.20657   4.20882   4.21225   4.21290   4.21463
 Alpha virt. eigenvalues --    4.21938   4.22005   4.22220   4.22513   4.23114
 Alpha virt. eigenvalues --    4.23203   4.23744   4.24153   4.24326   4.24607
 Alpha virt. eigenvalues --    4.24671   4.25112   4.25336   4.25820   4.26349
 Alpha virt. eigenvalues --    4.26676   4.26963   4.27289   4.27833   4.28140
 Alpha virt. eigenvalues --    4.28613   4.28775   4.29361   4.30173   4.31149
 Alpha virt. eigenvalues --    4.31385   4.31894   4.32058   4.32450   4.33482
 Alpha virt. eigenvalues --    4.34115   4.34716   4.35029   4.35419   4.36245
 Alpha virt. eigenvalues --    4.36957   4.37463   4.37687   4.38620   4.39158
 Alpha virt. eigenvalues --    4.39549   4.40849   4.41219   4.41921   4.43245
 Alpha virt. eigenvalues --    4.43489   4.44469   4.45332   4.46057   4.49325
 Alpha virt. eigenvalues --    4.49621   4.53020   4.55635   4.56131   4.56535
 Alpha virt. eigenvalues --    4.61346   4.61751   4.62353   4.62577   4.62806
 Alpha virt. eigenvalues --    4.63249   4.63767   4.63912   4.64268   4.64627
 Alpha virt. eigenvalues --    4.65471   4.66072   4.66490   4.67511   4.68312
 Alpha virt. eigenvalues --    4.68797   4.69746   4.71029   4.72362   4.73023
 Alpha virt. eigenvalues --    4.73531   4.74708   4.75096   4.75708   4.77354
 Alpha virt. eigenvalues --    4.78301   4.78931   4.79064   4.84130   4.85170
 Alpha virt. eigenvalues --    4.85641   4.86156   4.87295   4.89197   4.89712
 Alpha virt. eigenvalues --    4.91748   4.92447   4.93632   4.94206   4.94491
 Alpha virt. eigenvalues --    4.95387   4.96061   4.96892   4.97550   4.98216
 Alpha virt. eigenvalues --    4.98868   4.99433   5.00996   5.01318   5.05465
 Alpha virt. eigenvalues --    5.07872   5.10315   5.11020   5.12113   5.13984
 Alpha virt. eigenvalues --    5.14235   5.14473   5.14876   5.15401   5.15492
 Alpha virt. eigenvalues --    5.16102   5.16517   5.18630   5.22310   5.22840
 Alpha virt. eigenvalues --    5.26744   5.27599   5.29094   5.29555   5.34796
 Alpha virt. eigenvalues --    5.35324   5.35597   5.36016   5.36266   5.37055
 Alpha virt. eigenvalues --    5.39953   5.41536   5.42675   5.43090   5.45418
 Alpha virt. eigenvalues --    5.47346   5.50291   5.53207   5.57955   5.58366
 Alpha virt. eigenvalues --    5.59013   5.59142   5.60811   5.61110   5.65316
 Alpha virt. eigenvalues --    5.74770   6.04038   6.08282   6.22106   6.37524
 Alpha virt. eigenvalues --    6.55036   6.84175   6.92552   7.09336   7.40481
 Alpha virt. eigenvalues --    7.45878   7.82807   7.86319   8.00092   8.02983
 Alpha virt. eigenvalues --    8.07600   8.13109  16.03485  16.06113  22.13120
 Alpha virt. eigenvalues --   22.17535  22.22257  22.37393  22.44121  22.48513
 Alpha virt. eigenvalues --   22.49031  22.56271  22.61919  22.62567  22.63688
 Alpha virt. eigenvalues --   22.63936  22.66065  22.67713  22.68197  22.69772
 Alpha virt. eigenvalues --   22.72191  22.73303  22.75622  22.76014  22.78675
 Alpha virt. eigenvalues --   22.80374  22.80584  22.80949  22.82579  22.83768
 Alpha virt. eigenvalues --   22.87210  22.92497  22.96276  22.97471  23.00899
 Alpha virt. eigenvalues --   23.02536  23.05835  23.13492  23.16636  23.17491
 Alpha virt. eigenvalues --   23.18852  23.40804  23.55795  44.61240
          Condensed to atoms (all electrons):
 Mulliken charges:
               1
     1  P    0.128601
     2  C   -0.153811
     3  C   -0.152026
     4  C   -0.173042
     5  C   -0.162415
     6  C    0.001500
     7  C    0.184041
     8  O   -0.236322
     9  C    0.274348
    10  C   -0.450004
    11  C   -0.410859
    12  C   -0.027572
    13  C   -0.112960
    14  C   -0.225253
    15  C   -0.077829
    16  C   -0.172150
    17  C   -0.005768
    18  C    0.105665
    19  C   -0.262424
    20  C   -0.125239
    21  C   -0.087168
    22  C   -0.137707
    23  C   -0.202544
    24  H    0.174595
    25  H    0.121042
    26  H    0.115829
    27  H    0.153420
    28  H    0.135408
    29  H    0.155091
    30  H    0.126676
    31  H    0.137782
    32  H    0.118420
    33  H    0.116997
    34  H    0.164376
    35  H    0.142439
    36  H    0.109217
    37  H    0.107804
    38  H    0.103896
    39  H    0.122239
    40  P    0.118325
    41  C   -0.195193
    42  C   -0.170048
    43  C   -0.151597
    44  C   -0.191898
    45  C    0.013122
    46  C    0.227390
    47  C   -0.060691
    48  C   -0.077190
    49  C   -0.209607
    50  C   -0.069023
    51  C   -0.124649
    52  C   -0.049220
    53  C    0.120822
    54  C   -0.229268
    55  C   -0.122938
    56  C   -0.109045
    57  C   -0.138537
    58  C   -0.187252
    59  H    0.169261
    60  H    0.117997
    61  H    0.117111
    62  H    0.134552
    63  H    0.126897
    64  H    0.124784
    65  H    0.147974
    66  H    0.124852
    67  H    0.112292
    68  H    0.112357
    69  H    0.108868
    70  H    0.121468
    71  H    0.114487
    72  H    0.114236
    73  H    0.115483
    74  H    0.119584
 Sum of Mulliken charges =  -0.00000
 Mulliken charges with hydrogens summed into heavy atoms:
               1
     1  P    0.128601
     2  C   -0.153811
     3  C    0.022569
     4  C   -0.057213
     5  C   -0.041374
     6  C    0.001500
     7  C    0.184041
     8  O   -0.236322
     9  C    0.274348
    10  C   -0.026624
    11  C   -0.002195
    12  C   -0.027572
    13  C    0.029479
    14  C   -0.116036
    15  C    0.029975
    16  C   -0.068254
    17  C    0.116471
    18  C    0.105665
    19  C   -0.124641
    20  C   -0.006819
    21  C    0.032416
    22  C   -0.020710
    23  C   -0.038169
    40  P    0.118325
    41  C   -0.195193
    42  C   -0.000787
    43  C   -0.034486
    44  C   -0.073901
    45  C    0.013122
    46  C    0.227390
    47  C   -0.060691
    48  C    0.047662
    49  C   -0.097314
    50  C    0.043333
    51  C   -0.015782
    52  C    0.072249
    53  C    0.120822
    54  C   -0.104484
    55  C   -0.008702
    56  C    0.006437
    57  C   -0.024050
    58  C   -0.039278
 Electronic spatial extent (au):  <R**2>=          20940.9738
 Charge=             -0.0000 electrons
 Dipole moment (field-independent basis, Debye):
    X=             -0.4824    Y=              1.6446    Z=              2.4197  Tot=              2.9652
 Quadrupole moment (field-independent basis, Debye-Ang):
   XX=           -242.2839   YY=           -230.8199   ZZ=           -256.2713
   XY=              5.8319   XZ=              5.1071   YZ=              0.9757
 Traceless Quadrupole moment (field-independent basis, Debye-Ang):
   XX=              0.8411   YY=             12.3051   ZZ=            -13.1462
   XY=              5.8319   XZ=              5.1071   YZ=              0.9757
 Octapole moment (field-independent basis, Debye-Ang**2):
  XXX=            -26.6622  YYY=             40.6202  ZZZ=             55.1692  XYY=            -20.3671
  XXY=              0.3368  XXZ=            -47.0592  XZZ=             11.9194  YZZ=            -13.8678
  YYZ=             26.5229  XYZ=            -14.3090
 Hexadecapole moment (field-independent basis, Debye-Ang**3):
 XXXX=         -13453.4731 YYYY=          -9792.9172 ZZZZ=          -4816.7636 XXXY=            -25.7078
 XXXZ=            108.9997 YYYX=            115.7186 YYYZ=             81.7467 ZZZX=             12.6415
 ZZZY=           -173.4443 XXYY=          -3878.7662 XXZZ=          -3044.8502 YYZZ=          -2459.8649
 XXYZ=            173.1673 YYXZ=             33.4043 ZZXY=             95.1373
 N-N= 5.295999154746D+03 E-N=-1.588417222070D+04  KE= 2.251113309044D+03
 1\1\GINC-NC051\SP\RPBE1PBE\def2TZVP\C39H32O1P2\MACKK4\06-Dec-2021\0\\#
  PBE1PBE/def2TZVP int=(grid=ultrafine) empiricaldispersion=GD3BJ nmr=g
 iao\\XantPhos_2 title\\0,1\P,0,-1.62940157,1.6450186821,-3.4632554537\
 C,0,-2.1684513049,2.236278409,-1.7957049443\C,0,-3.5198612774,2.317622
 9737,-1.3994828427\C,0,-3.8542170425,2.5139184907,-0.0545444126\C,0,-2
 .8564044288,2.5785720177,0.9325229471\C,0,-1.502389973,2.4740203421,0.
 5853907393\C,0,-1.2017472699,2.3299753139,-0.780639186\O,0,0.120797768
 9,2.1652870494,-1.1466650232\C,0,-0.3113563005,2.4828297544,1.55862422
 33\C,0,-0.749766344,2.2200970972,3.006778556\C,0,0.3811030994,3.874150
 7109,1.4781927762\C,0,-2.4313378737,-0.0294079784,-3.3913744239\C,0,-3
 .2219027597,-0.5344890082,-4.4406194103\C,0,-3.8204423928,-1.797889509
 5,-4.3311586896\C,0,-3.6357054184,-2.5712873988,-3.1788008979\C,0,-2.8
 470084467,-2.0752227757,-2.1299487277\C,0,-2.2499982441,-0.8156632655,
 -2.2344139971\C,0,-2.6087651937,2.4930662599,-4.7625256467\C,0,-2.3072
 328335,2.1439646176,-6.0954785459\C,0,-4.0326993354,3.6524412238,-6.89
 43969098\C,0,-3.0235739974,2.7131439503,-7.1536370307\C,0,-4.310530831
 2,4.0265797936,-5.5734406504\C,0,-3.6039123424,3.4510925103,-4.5084519
 963\H,0,-4.3125552467,2.1754369069,-2.1391947478\H,0,-3.1459217199,2.6
 887064817,1.9815641784\H,0,-4.9070765898,2.5810630197,0.2357821516\H,0
 ,-1.2436208111,1.2396124527,3.1154588287\H,0,-1.4469421219,3.003627324
 6,3.3462312866\H,0,0.7090550154,4.1016734642,0.4515084655\H,0,-0.32070
 21156,4.6620892698,1.8006865143\H,0,-1.4807714865,1.4547266936,-6.3025
 212394\H,0,-4.5847118668,4.1080282166,-7.7225943269\H,0,-5.0727906854,
 4.7845977188,-5.3657572315\H,0,-3.7992847796,3.7876703356,-3.488032187
 9\H,0,-3.3914624114,0.066807874,-5.3377024983\H,0,-4.4424068716,-2.171
 3351896,-5.1515805646\H,0,-4.1051580781,-3.5568180717,-3.0947601585\H,
 0,-2.6910938994,-2.6733868909,-1.2267636934\H,0,-1.6471584411,-0.43751
 97702,-1.4023417673\P,0,1.6402149661,0.1395295491,-2.8010053897\C,0,1.
 6859548713,0.3760554687,-0.962582909\C,0,2.4872002761,-0.4235901523,-0
 .1188079957\C,0,2.3683960583,-0.3276791461,1.2730331233\C,0,1.45414199
 35,0.5664844122,1.8555395691\C,0,0.6792726737,1.4177836912,1.055325506
 5\C,0,0.8422921064,1.3124228969,-0.3381063801\C,0,0.7886395387,-1.4715
 939856,-3.061023298\C,0,0.7996089916,-2.519180805,-2.1221281443\C,0,0.
 2321044367,-3.7574522223,-2.447302042\C,0,-0.3452248983,-3.9603005197,
 -3.7092207492\C,0,-0.362401635,-2.9183249427,-4.6468195846\C,0,0.19655
 5627,-1.6762306708,-4.3224814079\C,0,3.3887473225,-0.3132789082,-3.155
 8743117\C,0,4.4311739335,0.472261285,-2.6213043873\C,0,6.0712213449,-0
 .9754529108,-3.6793215914\C,0,5.7641432192,0.1331570172,-2.8760685002\
 C,0,5.0381152858,-1.7487282397,-4.2238204461\C,0,3.6997073518,-1.42317
 35859,-3.9622246958\H,0,3.2028723226,-1.1218072573,-0.5636573857\H,0,1
 .362391136,0.6061650264,2.9448905241\H,0,2.989805122,-0.9605327687,1.9
 139546159\H,0,0.1184049602,2.2528900308,3.6852420452\H,0,1.2644700177,
 3.8939819021,2.1391391448\H,0,4.1962849767,1.3495166549,-2.0136377901\
 H,0,2.900434504,-2.0395810911,-4.3832619763\H,0,1.24358806,-2.36704253
 9,-1.1340698223\H,0,0.2400819971,-4.5675918237,-1.7104206365\H,0,-0.79
 09749859,-4.9285986623,-3.958690873\H,0,-0.8284454928,-3.065156584,-5.
 6260030617\H,0,0.1753438619,-0.8479026768,-5.0403715485\H,0,5.26938316
 23,-2.6146785949,-4.8526110318\H,0,7.1157864497,-1.2329139344,-3.88281
 25244\H,0,6.5663237805,0.7486949494,-2.4566328879\H,0,-2.7750110988,2.
 4403494665,-8.1842514098\\Version=ES64L-G09RevE.01\State=1-A\HF=-2261.
 887702\RMSD=6.265e-09\Dipole=-0.6404577,-0.3657079,0.9038938\Quadrupol
 e=-4.9543325,-3.7523802,8.7067126,-4.1526644,5.3443292,4.5308329\PG=C0
 1 [X(C39H32O1P2)]\\@


 We're simply so accustomed to the marvels of everyday thought
 that we never wonder about it.
 -- Marvin Minsky in "Why people think computers are smart"
 Job cpu time:       1 days  2 hours 15 minutes 52.0 seconds.
 File lengths (MBytes):  RWF=   1320 Int=      0 D2E=      0 Chk=    168 Scr=      1
 Normal termination of Gaussian 09 at Mon Dec  6 02:56:29 2021.
 Initial command:
 /gstore/apps/gaussian/g09.e01-foss-2017a/g09/l1.exe "/local/22791534/Gau-22040.inp" -scrdir="/local/22791534/"
 Entering Link 1 = /gstore/apps/gaussian/g09.e01-foss-2017a/g09/l1.exe PID=     23749.
  
 Copyright (c) 1988,1990,1992,1993,1995,1998,2003,2009,2015,
            Gaussian, Inc.  All Rights Reserved.
  
 This is part of the Gaussian(R) 09 program.  It is based on
 the Gaussian(R) 03 system (copyright 2003, Gaussian, Inc.),
 the Gaussian(R) 98 system (copyright 1998, Gaussian, Inc.),
 the Gaussian(R) 94 system (copyright 1995, Gaussian, Inc.),
 the Gaussian 92(TM) system (copyright 1992, Gaussian, Inc.),
 the Gaussian 90(TM) system (copyright 1990, Gaussian, Inc.),
 the Gaussian 88(TM) system (copyright 1988, Gaussian, Inc.),
 the Gaussian 86(TM) system (copyright 1986, Carnegie Mellon
 University), and the Gaussian 82(TM) system (copyright 1983,
[...]
  1297. RY*(  21) C  57                  0.00000     3.49031   
  1298. RY*(  22) C  57                  0.00000     3.43950   
  1299. RY*(  23) C  57                  0.00000     2.91671   
  1300. RY*(  24) C  57                  0.00000     3.65499   
  1301. RY*(  25) C  57                  0.00000     3.64131   
  1302. RY*(  26) C  57                  0.00000     3.59143   
  1303. RY*(   1) C  58                  0.00571     1.62566   
  1304. RY*(   2) C  58                  0.00178     1.39221   
  1305. RY*(   3) C  58                  0.00157     0.81471   
  1306. RY*(   4) C  58                  0.00127     1.70384   
  1307. RY*(   5) C  58                  0.00080     1.66006   
  1308. RY*(   6) C  58                  0.00038     1.83670   
  1309. RY*(   7) C  58                  0.00033     2.80245   
  1310. RY*(   8) C  58                  0.00019     1.82720   
  1311. RY*(   9) C  58                  0.00013     1.65199   
  1312. RY*(  10) C  58                  0.00009     2.38646   
  1313. RY*(  11) C  58                  0.00006     2.42397   
  1314. RY*(  12) C  58                  0.00004     1.50508   
  1315. RY*(  13) C  58                  0.00004     3.07784   
  1316. RY*(  14) C  58                  0.00002     2.97425   
  1317. RY*(  15) C  58                  0.00002     3.04720   
  1318. RY*(  16) C  58                  0.00002     1.73156   
  1319. RY*(  17) C  58                  0.00000     3.53096   
  1320. RY*(  18) C  58                  0.00000    20.75577   
  1321. RY*(  19) C  58                  0.00000     3.28697   
  1322. RY*(  20) C  58                  0.00000     3.34182   
  1323. RY*(  21) C  58                  0.00000     3.16857   
  1324. RY*(  22) C  58                  0.00000     3.28323   
  1325. RY*(  23) C  58                  0.00000     3.43103   
  1326. RY*(  24) C  58                  0.00000     3.51749   
  1327. RY*(  25) C  58                  0.00000     3.49074   
  1328. RY*(  26) C  58                  0.00001     3.05796   
  1329. RY*(   1) H  59                  0.00109     0.74426   
  1330. RY*(   2) H  59                  0.00031     2.40145   
  1331. RY*(   3) H  59                  0.00017     2.31181   
  1332. RY*(   4) H  59                  0.00011     2.79969   
  1333. RY*(   5) H  59                  0.00002     3.16606   
  1334. RY*(   1) H  60                  0.00046     1.40622   
  1335. RY*(   2) H  60                  0.00018     1.73751   
  1336. RY*(   3) H  60                  0.00016     2.18689   
  1337. RY*(   4) H  60                  0.00010     2.76907   
  1338. RY*(   5) H  60                  0.00002     3.09714   
  1339. RY*(   1) H  61                  0.00037     1.02834   
  1340. RY*(   2) H  61                  0.00019     1.86435   
  1341. RY*(   3) H  61                  0.00011     2.16018   
  1342. RY*(   4) H  61                  0.00008     2.79200   
  1343. RY*(   5) H  61                  0.00001     3.05818   
  1344. RY*(   1) H  62                  0.00053     0.97878   
  1345. RY*(   2) H  62                  0.00013     1.78664   
  1346. RY*(   3) H  62                  0.00009     2.13019   
  1347. RY*(   4) H  62                  0.00007     2.41884   
  1348. RY*(   5) H  62                  0.00001     2.98105   
  1349. RY*(   1) H  63                  0.00049     1.06097   
  1350. RY*(   2) H  63                  0.00011     1.55888   
  1351. RY*(   3) H  63                  0.00009     2.24400   
  1352. RY*(   4) H  63                  0.00006     2.40709   
  1353. RY*(   5) H  63                  0.00000     2.96774   
  1354. RY*(   1) H  64                  0.00087     0.70091   
  1355. RY*(   2) H  64                  0.00025     2.33085   
  1356. RY*(   3) H  64                  0.00014     2.21947   
  1357. RY*(   4) H  64                  0.00009     2.75874   
  1358. RY*(   5) H  64                  0.00002     3.14258   
  1359. RY*(   1) H  65                  0.00110     0.80257   
  1360. RY*(   2) H  65                  0.00028     2.40513   
  1361. RY*(   3) H  65                  0.00012     2.23987   
  1362. RY*(   4) H  65                  0.00011     2.72646   
  1363. RY*(   5) H  65                  0.00003     3.21316   
  1364. RY*(   1) H  66                  0.00138     0.82368   
  1365. RY*(   2) H  66                  0.00034     2.38025   
  1366. RY*(   3) H  66                  0.00013     2.21802   
  1367. RY*(   4) H  66                  0.00008     2.76272   
  1368. RY*(   5) H  66                  0.00003     3.22338   
  1369. RY*(   1) H  67                  0.00042     1.02784   
  1370. RY*(   2) H  67                  0.00020     1.81164   
  1371. RY*(   3) H  67                  0.00012     2.32470   
  1372. RY*(   4) H  67                  0.00013     2.55105   
  1373. RY*(   5) H  67                  0.00002     3.08651   
  1374. RY*(   1) H  68                  0.00034     0.93578   
  1375. RY*(   2) H  68                  0.00020     1.80966   
  1376. RY*(   3) H  68                  0.00014     2.16193   
  1377. RY*(   4) H  68                  0.00008     2.75681   
  1378. RY*(   5) H  68                  0.00002     3.10485   
  1379. RY*(   1) H  69                  0.00040     1.05923   
  1380. RY*(   2) H  69                  0.00019     1.77141   
  1381. RY*(   3) H  69                  0.00015     2.18053   
  1382. RY*(   4) H  69                  0.00013     2.74806   
  1383. RY*(   5) H  69                  0.00002     3.11312   
  1384. RY*(   1) H  70                  0.00122     0.78107   
  1385. RY*(   2) H  70                  0.00035     2.33194   
  1386. RY*(   3) H  70                  0.00019     2.24754   
  1387. RY*(   4) H  70                  0.00009     2.77152   
  1388. RY*(   5) H  70                  0.00003     3.16886   
  1389. RY*(   1) H  71                  0.00039     0.96841   
  1390. RY*(   2) H  71                  0.00019     1.87089   
  1391. RY*(   3) H  71                  0.00011     2.55325   
  1392. RY*(   4) H  71                  0.00011     2.33293   
  1393. RY*(   5) H  71                  0.00002     3.10024   
  1394. RY*(   1) H  72                  0.00033     0.90149   
  1395. RY*(   2) H  72                  0.00020     1.83955   
  1396. RY*(   3) H  72                  0.00011     2.16011   
  1397. RY*(   4) H  72                  0.00008     2.75907   
  1398. RY*(   5) H  72                  0.00002     3.10540   
  1399. RY*(   1) H  73                  0.00038     0.95261   
  1400. RY*(   2) H  73                  0.00020     1.88789   
  1401. RY*(   3) H  73                  0.00012     2.71294   
  1402. RY*(   4) H  73                  0.00011     2.15822   
  1403. RY*(   5) H  73                  0.00002     3.10075   
  1404. RY*(   1) H  74                  0.00037     0.96424   
  1405. RY*(   2) H  74                  0.00020     1.87381   
  1406. RY*(   3) H  74                  0.00011     2.63203   
  1407. RY*(   4) H  74                  0.00012     2.20831   
  1408. RY*(   5) H  74                  0.00002     3.09382   
  1409. BD*(   1) P   1 - C   2          0.03375     0.21956   
  1410. BD*(   1) P   1 - C  12          0.04581     0.22218   
  1411. BD*(   1) P   1 - C  18          0.03623     0.23567   
  1412. BD*(   1) C   2 - C   3          0.02697     0.52016   
  1413. BD*(   1) C   2 - C   7          0.03435     0.51251   
  1414. BD*(   2) C   2 - C   7          0.39093     0.01698  1416(v),1421(v),1437(r)
                                                    1478(r),1410(v),313(g)
                                                    184(g),1411(v)
  1415. BD*(   1) C   3 - C   4          0.01662     0.54212   
  1416. BD*(   2) C   3 - C   4          0.31407     0.02711  1421(v),1414(v),235(g)
                                                    1452(r),1437(r)
  1417. BD*(   1) C   3 - H  24          0.01526     0.40966   
  1418. BD*(   1) C   4 - C   5          0.01329     0.53458   
  1419. BD*(   1) C   4 - H  26          0.01377     0.40045   
  1420. BD*(   1) C   5 - C   6          0.02095     0.53438   
  1421. BD*(   2) C   5 - C   6          0.34257     0.02887  1416(v),1414(v),1478(r)
                                                    261(g),1428(v),1429(v)
  1422. BD*(   1) C   5 - H  25          0.01485     0.40052   
  1423. BD*(   1) C   6 - C   7          0.03900     0.51391   
  1424. BD*(   1) C   6 - C   9          0.03779     0.35910   
  1425. BD*(   1) C   7 - O   8          0.03271     0.33075   
  1426. BD*(   1) O   8 - C  46          0.03252     0.33470   
  1427. BD*(   1) C   9 - C  10          0.01846     0.33366   
  1428. BD*(   1) C   9 - C  11          0.02792     0.31108   
  1429. BD*(   1) C   9 - C  45          0.03795     0.35816   
  1430. BD*(   1) C  10 - H  27          0.00672     0.36987   
  1431. BD*(   1) C  10 - H  28          0.00701     0.36815   
  1432. BD*(   1) C  10 - H  62          0.00703     0.36845   
  1433. BD*(   1) C  11 - H  29          0.00660     0.38388   
  1434. BD*(   1) C  11 - H  30          0.00720     0.37136   
  1435. BD*(   1) C  11 - H  63          0.00718     0.37131   
  1436. BD*(   1) C  12 - C  13          0.02590     0.54096   
  1437. BD*(   2) C  12 - C  13          0.37255     0.03543  1442(v),1447(v),1414(r)
                                                    1409(v),1416(r),468(g)
                                                    469(g),1481(r),1483(r)
                                                    1488(r)
  1438. BD*(   1) C  12 - C  17          0.02335     0.53323   
  1439. BD*(   1) C  13 - C  14          0.01647     0.55288   
  1440. BD*(   1) C  13 - H  35          0.01835     0.42485   
  1441. BD*(   1) C  14 - C  15          0.01476     0.55083   
  1442. BD*(   2) C  14 - C  15          0.33620     0.03657  1437(v),1447(v),495(g)
                                                    1488(r),521(g)
  1443. BD*(   1) C  14 - H  36          0.01385     0.41286   
  1444. BD*(   1) C  15 - C  16          0.01501     0.54801   
  1445. BD*(   1) C  15 - H  37          0.01342     0.41394   
  1446. BD*(   1) C  16 - C  17          0.01641     0.55961   
  1447. BD*(   2) C  16 - C  17          0.31071     0.04382  1442(v),1437(v),547(g)
                                                    1481(r),1483(r)
  1448. BD*(   1) C  16 - H  38          0.01375     0.41598   
  1449. BD*(   1) C  17 - H  39          0.01642     0.42468   
  1450. BD*(   1) C  18 - C  19          0.02170     0.51685   
  1451. BD*(   1) C  18 - C  23          0.02877     0.53356   
  1452. BD*(   2) C  18 - C  23          0.36680     0.02609  1458(v),1454(v),729(g)
                                                    1410(v),1416(r),600(g)
  1453. BD*(   1) C  19 - C  21          0.01618     0.54358   
  1454. BD*(   2) C  19 - C  21          0.32298     0.02768  1458(v),1452(v),677(g)
                                                    625(g)
  1455. BD*(   1) C  19 - H  31          0.01576     0.40386   
  1456. BD*(   1) C  20 - C  21          0.01474     0.53599   
  1457. BD*(   1) C  20 - C  22          0.01447     0.53889   
  1458. BD*(   2) C  20 - C  22          0.32924     0.02675  1452(v),1454(v),651(g)
                                                    703(g)
  1459. BD*(   1) C  20 - H  32          0.01299     0.40430   
  1460. BD*(   1) C  21 - H  74          0.01347     0.40298   
  1461. BD*(   1) C  22 - C  23          0.01665     0.54253   
  1462. BD*(   1) C  22 - H  33          0.01358     0.40379   
  1463. BD*(   1) C  23 - H  34          0.01648     0.41256   
  1464. BD*(   1) P  40 - C  41          0.03687     0.22084   
  1465. BD*(   1) P  40 - C  47          0.03782     0.23335   
  1466. BD*(   1) P  40 - C  53          0.04706     0.23754   
  1467. BD*(   1) C  41 - C  42          0.02619     0.52016   
  1468. BD*(   2) C  41 - C  42          0.38264     0.02035  1473(v),1478(v),1465(v)
                                                    1481(r),889(g),888(g),864(g)
                                                    1466(v)
  1469. BD*(   1) C  41 - C  46          0.03475     0.51401   
  1470. BD*(   1) C  42 - C  43          0.01690     0.54323   
  1471. BD*(   1) C  42 - H  59          0.01545     0.41533   
  1472. BD*(   1) C  43 - C  44          0.01339     0.53540   
  1473. BD*(   2) C  43 - C  44          0.35283     0.02271  1468(v),1478(v),915(g)
                                                    941(g)
  1474. BD*(   1) C  43 - H  61          0.01399     0.40068   
  1475. BD*(   1) C  44 - C  45          0.02081     0.53450   
  1476. BD*(   1) C  44 - H  60          0.01488     0.40067   
  1477. BD*(   1) C  45 - C  46          0.03878     0.51333   
  1478. BD*(   2) C  45 - C  46          0.38434     0.02513  1473(v),1468(v),1421(r)
                                                    1414(r),1428(v),993(g)
                                                    1424(v),1425(v),941(v)
  1479. BD*(   1) C  47 - C  48          0.03258     0.53629   
  1480. BD*(   1) C  47 - C  52          0.02389     0.52846   
  1481. BD*(   2) C  47 - C  52          0.36765     0.02960  1488(v),1483(v),1466(v)
                                                    1149(g),1468(r),1447(r)
                                                    1437(r),1045(v)
  1482. BD*(   1) C  48 - C  49          0.01707     0.54949   
  1483. BD*(   2) C  48 - C  49          0.31510     0.03415  1488(v),1481(v),1495(r)
                                                    1071(g),1447(r),1045(g)
                                                    1437(r)
  1484. BD*(   1) C  48 - H  66          0.01785     0.42057   
  1485. BD*(   1) C  49 - C  50          0.01481     0.54139   
  1486. BD*(   1) C  49 - H  67          0.01410     0.40800   
  1487. BD*(   1) C  50 - C  51          0.01494     0.54308   
  1488. BD*(   2) C  50 - C  51          0.32382     0.03228  1483(v),1481(v),1442(r)
                                                    1097(g),1123(g)
  1489. BD*(   1) C  50 - H  68          0.01324     0.41002   
  1490. BD*(   1) C  51 - C  52          0.01756     0.54902   
  1491. BD*(   1) C  51 - H  69          0.01383     0.41116   
  1492. BD*(   1) C  52 - H  70          0.01672     0.41678   
  1493. BD*(   1) C  53 - C  54          0.02289     0.53047   
  1494. BD*(   1) C  53 - C  58          0.02435     0.53895   
  1495. BD*(   2) C  53 - C  58          0.37141     0.03423  1501(v),1497(v),1483(r)
                                                    1305(g),1464(v),1176(g)
  1496. BD*(   1) C  54 - C  56          0.01551     0.55278   
  1497. BD*(   2) C  54 - C  56          0.32055     0.03669  1501(v),1495(v),1253(g)
                                                    1201(g)
  1498. BD*(   1) C  54 - H  64          0.01568     0.41492   
  1499. BD*(   1) C  55 - C  56          0.01473     0.54460   
  1500. BD*(   1) C  55 - C  57          0.01466     0.54800   
  1501. BD*(   2) C  55 - C  57          0.33520     0.03486  1495(v),1497(v),1227(g)
                                                    1279(g)
  1502. BD*(   1) C  55 - H  72          0.01313     0.41149   
  1503. BD*(   1) C  56 - H  73          0.01353     0.41091   
  1504. BD*(   1) C  57 - C  58          0.01583     0.55126   
  1505. BD*(   1) C  57 - H  71          0.01360     0.41179   
  1506. BD*(   1) C  58 - H  65          0.01620     0.42270   
       -------------------------------
              Total Lewis  295.57391  ( 97.2283%)
        Valence non-Lewis    7.84563  (  2.5808%)
        Rydberg non-Lewis    0.58046  (  0.1909%)
       -------------------------------
            Total unit  1  304.00000  (100.0000%)
           Charge unit  1    0.00000
 1\1\GINC-NC051\SP\RPBE1PBE\def2TZVP\C39H32O1P2\MACKK4\06-Dec-2021\0\\#
  PBE1PBE/def2TZVP int=(grid=ultrafine) empiricaldispersion=GD3BJ pop=n
 bo guess=read geom=check\\XantPhos_2 title\\0,1\P,0,-1.62940157,1.6450
 186821,-3.4632554537\C,0,-2.1684513049,2.236278409,-1.7957049443\C,0,-
 3.5198612774,2.3176229737,-1.3994828427\C,0,-3.8542170425,2.5139184907
 ,-0.0545444126\C,0,-2.8564044288,2.5785720177,0.9325229471\C,0,-1.5023
 89973,2.4740203421,0.5853907393\C,0,-1.2017472699,2.3299753139,-0.7806
 39186\O,0,0.1207977689,2.1652870494,-1.1466650232\C,0,-0.3113563005,2.
 4828297544,1.5586242233\C,0,-0.749766344,2.2200970972,3.006778556\C,0,
 0.3811030994,3.8741507109,1.4781927762\C,0,-2.4313378737,-0.0294079784
 ,-3.3913744239\C,0,-3.2219027597,-0.5344890082,-4.4406194103\C,0,-3.82
 04423928,-1.7978895095,-4.3311586896\C,0,-3.6357054184,-2.5712873988,-
 3.1788008979\C,0,-2.8470084467,-2.0752227757,-2.1299487277\C,0,-2.2499
 982441,-0.8156632655,-2.2344139971\C,0,-2.6087651937,2.4930662599,-4.7
 625256467\C,0,-2.3072328335,2.1439646176,-6.0954785459\C,0,-4.03269933
 54,3.6524412238,-6.8943969098\C,0,-3.0235739974,2.7131439503,-7.153637
 0307\C,0,-4.3105308312,4.0265797936,-5.5734406504\C,0,-3.6039123424,3.
 4510925103,-4.5084519963\H,0,-4.3125552467,2.1754369069,-2.1391947478\
 H,0,-3.1459217199,2.6887064817,1.9815641784\H,0,-4.9070765898,2.581063
 0197,0.2357821516\H,0,-1.2436208111,1.2396124527,3.1154588287\H,0,-1.4
 469421219,3.0036273246,3.3462312866\H,0,0.7090550154,4.1016734642,0.45
 15084655\H,0,-0.3207021156,4.6620892698,1.8006865143\H,0,-1.4807714865
 ,1.4547266936,-6.3025212394\H,0,-4.5847118668,4.1080282166,-7.72259432
 69\H,0,-5.0727906854,4.7845977188,-5.3657572315\H,0,-3.7992847796,3.78
 76703356,-3.4880321879\H,0,-3.3914624114,0.066807874,-5.3377024983\H,0
 ,-4.4424068716,-2.1713351896,-5.1515805646\H,0,-4.1051580781,-3.556818
 0717,-3.0947601585\H,0,-2.6910938994,-2.6733868909,-1.2267636934\H,0,-
 1.6471584411,-0.4375197702,-1.4023417673\P,0,1.6402149661,0.1395295491
 ,-2.8010053897\C,0,1.6859548713,0.3760554687,-0.962582909\C,0,2.487200
 2761,-0.4235901523,-0.1188079957\C,0,2.3683960583,-0.3276791461,1.2730
 331233\C,0,1.4541419935,0.5664844122,1.8555395691\C,0,0.6792726737,1.4
 177836912,1.0553255065\C,0,0.8422921064,1.3124228969,-0.3381063801\C,0
 ,0.7886395387,-1.4715939856,-3.061023298\C,0,0.7996089916,-2.519180805
 ,-2.1221281443\C,0,0.2321044367,-3.7574522223,-2.447302042\C,0,-0.3452
 248983,-3.9603005197,-3.7092207492\C,0,-0.362401635,-2.9183249427,-4.6
 468195846\C,0,0.196555627,-1.6762306708,-4.3224814079\C,0,3.3887473225
 ,-0.3132789082,-3.1558743117\C,0,4.4311739335,0.472261285,-2.621304387
 3\C,0,6.0712213449,-0.9754529108,-3.6793215914\C,0,5.7641432192,0.1331
 570172,-2.8760685002\C,0,5.0381152858,-1.7487282397,-4.2238204461\C,0,
 3.6997073518,-1.4231735859,-3.9622246958\H,0,3.2028723226,-1.121807257
 3,-0.5636573857\H,0,1.362391136,0.6061650264,2.9448905241\H,0,2.989805
 122,-0.9605327687,1.9139546159\H,0,0.1184049602,2.2528900308,3.6852420
 452\H,0,1.2644700177,3.8939819021,2.1391391448\H,0,4.1962849767,1.3495
 166549,-2.0136377901\H,0,2.900434504,-2.0395810911,-4.3832619763\H,0,1
 .24358806,-2.367042539,-1.1340698223\H,0,0.2400819971,-4.5675918237,-1
 .7104206365\H,0,-0.7909749859,-4.9285986623,-3.958690873\H,0,-0.828445
 4928,-3.065156584,-5.6260030617\H,0,0.1753438619,-0.8479026768,-5.0403
 715485\H,0,5.2693831623,-2.6146785949,-4.8526110318\H,0,7.1157864497,-
 1.2329139344,-3.8828125244\H,0,6.5663237805,0.7486949494,-2.4566328879
 \H,0,-2.7750110988,2.4403494665,-8.1842514098\\Version=ES64L-G09RevE.0
 1\State=1-A\HF=-2261.887702\RMSD=6.156e-09\Dipole=-0.6404577,-0.365708
 2,0.9038926\Quadrupole=-4.9543121,-3.7523947,8.7067068,-4.1526704,5.34
 43312,4.5308467\PG=C01 [X(C39H32O1P2)]\\@


 THERE'S NOTHING WRONG WITH FOLLOWING A TRAIN OF THOUGHT...
 AS LONG AS IT ULTIMATELY PULLS INTO THE STATION.
 Job cpu time:       0 days  1 hours 58 minutes 40.8 seconds.
 File lengths (MBytes):  RWF=   1164 Int=      0 D2E=      0 Chk=    168 Scr=      1
 Normal termination of Gaussian 09 at Mon Dec  6 03:05:07 2021.
