 Entering Gaussian System, Link 0=g09
 Input=XantPhos_2.com
 Output=XantPhos_2.log
 Initial command:
 /gstore/apps/gaussian/g09.e01-foss-2017a/g09/l1.exe "/local/21251494/Gau-27406.inp" -scrdir="/local/21251494/"
 Entering Link 1 = /gstore/apps/gaussian/g09.e01-foss-2017a/g09/l1.exe PID=     27407.
  
 Copyright (c) 1988,1990,1992,1993,1995,1998,2003,2009,2015,
            Gaussian, Inc.  All Rights Reserved.
  
 This is part of the Gaussian(R) 09 program.  It is based on
 the Gaussian(R) 03 system (copyright 2003, Gaussian, Inc.),
 the Gaussian(R) 98 system (copyright 1998, Gaussian, Inc.),
 the Gaussian(R) 94 system (copyright 1995, Gaussian, Inc.),
 the Gaussian 92(TM) system (copyright 1992, Gaussian, Inc.),
 the Gaussian 90(TM) system (copyright 1990, Gaussian, Inc.),
 the Gaussian 88(TM) system (copyright 1988, Gaussian, Inc.),
 the Gaussian 86(TM) system (copyright 1986, Carnegie Mellon
 University), and the Gaussian 82(TM) system (copyright 1983,
 Carnegie Mellon University). Gaussian is a federally registered
 trademark of Gaussian, Inc.
  
 This software contains proprietary and confidential information,
 including trade secrets, belonging to Gaussian, Inc.
  
 This software is provided under written license and may be
 used, copied, transmitted, or stored only in accord with that
 written license.
  
 The following legend is applicable only to US Government
 contracts under FAR:
  
                    RESTRICTED RIGHTS LEGEND
  
 Use, reproduction and disclosure by the US Government is
 subject to restrictions as set forth in subparagraphs (a)
 and (c) of the Commercial Computer Software - Restricted
 Rights clause in FAR 52.227-19.
  
 Gaussian, Inc.
 340 Quinnipiac St., Bldg. 40, Wallingford CT 06492
  
  
 ---------------------------------------------------------------
 Warning -- This program may not be used in any manner that
 competes with the business of Gaussian, Inc. or will provide
 assistance to any competitor of Gaussian, Inc.  The licensee
 of this program is prohibited from giving any competitor of
 Gaussian, Inc. access to this program.  By using this program,
 the user acknowledges that Gaussian, Inc. is engaged in the
 business of creating and licensing software in the field of
 computational chemistry and represents and warrants to the
 licensee that it is not a competitor of Gaussian, Inc. and that
 it will not use this program in any manner prohibited above.
 ---------------------------------------------------------------
  

 Cite this work as:
 Gaussian 09, Revision E.01,
 M. J. Frisch, G. W. Trucks, H. B. Schlegel, G. E. Scuseria, 
 M. A. Robb, J. R. Cheeseman, G. Scalmani, V. Barone, B. Mennucci, 
 G. A. Petersson, H. Nakatsuji, M. Caricato, X. Li, H. P. Hratchian, 
 A. F. Izmaylov, J. Bloino, G. Zheng, J. L. Sonnenberg, M. Hada, 
 M. Ehara, K. Toyota, R. Fukuda, J. Hasegawa, M. Ishida, T. Nakajima, 
 Y. Honda, O. Kitao, H. Nakai, T. Vreven, J. A. Montgomery, Jr., 
 J. E. Peralta, F. Ogliaro, M. Bearpark, J. J. Heyd, E. Brothers, 
 K. N. Kudin, V. N. Staroverov, T. Keith, R. Kobayashi, J. Normand, 
 K. Raghavachari, A. Rendell, J. C. Burant, S. S. Iyengar, J. Tomasi, 
 M. Cossi, N. Rega, J. M. Millam, M. Klene, J. E. Knox, J. B. Cross, 
 V. Bakken, C. Adamo, J. Jaramillo, R. Gomperts, R. E. Stratmann, 
 O. Yazyev, A. J. Austin, R. Cammi, C. Pomelli, J. W. Ochterski, 
 R. L. Martin, K. Morokuma, V. G. Zakrzewski, G. A. Voth, 
 P. Salvador, J. J. Dannenberg, S. Dapprich, A. D. Daniels, 
 O. Farkas, J. B. Foresman, J. V. Ortiz, J. Cioslowski, 
 and D. J. Fox, Gaussian, Inc., Wallingford CT, 2013.
 
 ******************************************
 Gaussian 09:  ES64L-G09RevE.01 30-Nov-2015
                17-Nov-2021 
 ******************************************
 %nprocs=14
 Will use up to   14 processors via shared memory.
 %mem=128GB
 %chk=XantPhos_2.chk
 ----------------------------------------------------------------------
 # PBEPBE gen 6D pseudo=read scf=maxcycles=500 denfit int=(grid=ultrafi
 ne) empiricaldispersion=GD3BJ opt freq=noraman
 ----------------------------------------------------------------------
 1/14=-1,18=20,19=15,26=4,38=1/1,3;
 2/9=110,12=2,17=6,18=5,40=1/2;
 3/5=7,8=2,11=2,16=1,17=8,25=1,30=1,71=1,74=1009,75=-5,82=47,124=41/1,2,3;
 4//1;
 5/5=2,7=500,38=5/2;
 6/7=2,8=2,9=2,10=2,28=1/1;
 7//1,2,3,16;
 1/14=-1,18=20,19=15,26=4/3(2);
 2/9=110/2;
 99//99;
 2/9=110/2;
 3/5=7,6=1,8=2,11=2,16=1,17=8,25=1,30=1,71=1,74=1009,75=-5,82=7,124=41/1,2,3;
 4/5=5,16=3,69=1/1;
 5/5=2,7=500,38=5/2;
 7//1,2,3,16;
 1/14=-1,18=20,19=15,26=4/3(-5);
 2/9=110/2;
 6/7=2,8=2,9=2,10=2,19=2,28=1/1;
 99/9=1/99;
 --------
 XantPhos
 --------
 Symbolic Z-matrix:
 Charge =  0 Multiplicity = 1
 P                    -1.6548    1.6501   -3.504 
 C                    -2.1703    2.2921   -1.8171 
 C                    -3.5039    2.5349   -1.4277 
 C                    -3.8005    2.9108   -0.1022 
 C                    -2.7777    2.9787    0.8658 
 C                    -1.443     2.6759    0.5077 
 C                    -1.1609    2.3912   -0.8477 
 O                     0.1151    2.085    -1.2167 
 C                    -0.2825    2.5522    1.518 
 C                    -0.8051    2.2668    2.9471 
 C                     0.5044    3.8742    1.5455 
 C                    -2.3296   -0.0969   -3.2652 
 C                    -3.121    -0.7454   -4.2413 
 C                    -3.645    -2.0332   -4.0158 
 C                    -3.3936   -2.6941   -2.8008 
 C                    -2.6184   -2.0613   -1.8139 
 C                    -2.0924   -0.7766   -2.0481 
 C                    -2.7562    2.4932   -4.7834 
 C                    -2.7568    2.0204   -6.1149 
 C                    -4.3164    3.768    -6.787 
 C                    -3.5383    2.6415   -7.1083 
 C                    -4.2944    4.2783   -5.4766 
 C                    -3.5109    3.6514   -4.4882 
 H                    -4.3061    2.4121   -2.1409 
 H                    -3.0486    3.2237    1.8804 
 H                    -4.8244    3.1058    0.1829 
 H                    -1.3718    1.3356    2.9834 
 H                    -1.4474    3.0662    3.314 
 H                     0.8974    4.1239    0.5592 
 H                    -0.1263    4.7044    1.8644 
 H                    -2.1441    1.1729   -6.3841 
 H                    -4.912     4.2516   -7.5477 
 H                    -4.8674    5.1607   -5.2313 
 H                    -3.4788    4.0915   -3.5042 
 H                    -3.3566   -0.2647   -5.1745 
 H                    -4.2462   -2.5116   -4.7751 
 H                    -3.7935   -3.6822   -2.6261 
 H                    -2.4186   -2.5624   -0.8782 
 H                    -1.4999   -0.3153   -1.2729 
 P                     1.546     0.0206   -2.8032 
 C                     1.5016    0.1738   -0.9309 
 C                     2.2035   -0.6848   -0.0595 
 C                     2.1379   -0.494     1.3352 
 C                     1.3594    0.5488    1.8778 
 C                     0.6463    1.4207    1.0222 
 C                     0.7635    1.2319   -0.3747 
 C                     0.8058   -1.6154   -3.3337 
 C                     0.733    -2.7276   -2.4671 
 C                     0.202    -3.953    -2.9145 
 C                    -0.263    -4.0786   -4.2366 
 C                    -0.1939   -2.9774   -5.1096 
 C                     0.3398   -1.7547   -4.6588 
 C                     3.3828   -0.3246   -3.0359 
 C                     4.3375    0.4389   -2.3273 
 C                     6.1606   -0.8093   -3.3562 
 C                     5.7164    0.2003   -2.4832 
 C                     5.2225   -1.5749   -4.0724 
 C                     3.8442   -1.3318   -3.9137 
 H                     2.8092   -1.4836   -0.4634 
 H                     1.3217    0.6551    2.9503 
 H                     2.6844   -1.1552    1.9924 
 H                     0.0044    2.1964    3.6723 
 H                     1.3519    3.8174    2.229 
 H                     4.0098    1.2223   -1.659 
 H                     3.1455   -1.9316   -4.4771 
 H                     1.0811   -2.6515   -1.4499 
 H                     0.1478   -4.7955   -2.2407 
 H                    -0.6752   -5.0166   -4.5791 
 H                    -0.5519   -3.0703   -6.1245 
 H                     0.3954   -0.9196   -5.3409 
 H                     5.5592   -2.3487   -4.7469 
 H                     7.2181   -0.9926   -3.4797 
 H                     6.4324    0.796    -1.9357 
 H                    -3.532     2.2605   -8.1192 
 Pd                    0.708     1.972    -3.9658 
 Cl                    2.9062    2.4937   -4.5578 
 Cl                    0.1241    3.9312   -5.0985 
 

 GradGradGradGradGradGradGradGradGradGradGradGradGradGradGradGradGradGrad
 Berny optimization.
 Initialization pass.
                           ----------------------------
                           !    Initial Parameters    !
                           ! (Angstroms and Degrees)  !
 --------------------------                            --------------------------
 ! Name  Definition              Value          Derivative Info.                !
 --------------------------------------------------------------------------------
 ! R1    R(1,2)                  1.8771         estimate D2E/DX2                !
 ! R2    R(1,12)                 1.888          estimate D2E/DX2                !
 ! R3    R(1,18)                 1.887          estimate D2E/DX2                !
 ! R4    R(1,75)                 2.4289         estimate D2E/DX2                !
 ! R5    R(2,3)                  1.4103         estimate D2E/DX2                !
 ! R6    R(2,7)                  1.403          estimate D2E/DX2                !
 ! R7    R(3,4)                  1.4093         estimate D2E/DX2                !
 ! R8    R(3,24)                 1.0804         estimate D2E/DX2                !
 ! R9    R(4,5)                  1.4099         estimate D2E/DX2                !
 ! R10   R(4,26)                 1.0806         estimate D2E/DX2                !
 ! R11   R(5,6)                  1.4147         estimate D2E/DX2                !
 ! R12   R(5,25)                 1.0783         estimate D2E/DX2                !
 ! R13   R(6,7)                  1.4134         estimate D2E/DX2                !
 ! R14   R(6,9)                  1.5436         estimate D2E/DX2                !
 ! R15   R(7,8)                  1.3631         estimate D2E/DX2                !
 ! R16   R(8,46)                 1.3628         estimate D2E/DX2                !
 ! R17   R(9,10)                 1.5482         estimate D2E/DX2                !
 ! R18   R(9,11)                 1.5387         estimate D2E/DX2                !
 ! R19   R(9,45)                 1.5456         estimate D2E/DX2                !
 ! R20   R(10,27)                1.0907         estimate D2E/DX2                !
 ! R21   R(10,28)                1.0891         estimate D2E/DX2                !
 ! R22   R(10,62)                1.0891         estimate D2E/DX2                !
 ! R23   R(11,29)                1.0907         estimate D2E/DX2                !
 ! R24   R(11,30)                1.0903         estimate D2E/DX2                !
 ! R25   R(11,63)                1.0903         estimate D2E/DX2                !
 ! R26   R(12,13)                1.4141         estimate D2E/DX2                !
 ! R27   R(12,17)                1.4141         estimate D2E/DX2                !
 ! R28   R(13,14)                1.4085         estimate D2E/DX2                !
 ! R29   R(13,35)                1.0758         estimate D2E/DX2                !
 ! R30   R(14,15)                1.4058         estimate D2E/DX2                !
 ! R31   R(14,36)                1.0802         estimate D2E/DX2                !
 ! R32   R(15,16)                1.4055         estimate D2E/DX2                !
 ! R33   R(15,37)                1.0802         estimate D2E/DX2                !
 ! R34   R(16,17)                1.4078         estimate D2E/DX2                !
 ! R35   R(16,38)                1.0801         estimate D2E/DX2                !
 ! R36   R(17,39)                1.0793         estimate D2E/DX2                !
 ! R37   R(18,19)                1.413          estimate D2E/DX2                !
 ! R38   R(18,23)                1.4136         estimate D2E/DX2                !
 ! R39   R(19,21)                1.4083         estimate D2E/DX2                !
 ! R40   R(19,31)                1.0799         estimate D2E/DX2                !
 ! R41   R(20,21)                1.4063         estimate D2E/DX2                !
 ! R42   R(20,22)                1.4064         estimate D2E/DX2                !
 ! R43   R(20,32)                1.0804         estimate D2E/DX2                !
 ! R44   R(21,74)                1.0803         estimate D2E/DX2                !
 ! R45   R(22,23)                1.4085         estimate D2E/DX2                !
 ! R46   R(22,33)                1.0803         estimate D2E/DX2                !
 ! R47   R(23,34)                1.0784         estimate D2E/DX2                !
 ! R48   R(40,41)                1.8791         estimate D2E/DX2                !
 ! R49   R(40,47)                1.8724         estimate D2E/DX2                !
 ! R50   R(40,53)                1.8834         estimate D2E/DX2                !
 ! R51   R(40,75)                2.4211         estimate D2E/DX2                !
 ! R52   R(41,42)                1.4104         estimate D2E/DX2                !
 ! R53   R(41,46)                1.4049         estimate D2E/DX2                !
 ! R54   R(42,43)                1.4092         estimate D2E/DX2                !
 ! R55   R(42,59)                1.0808         estimate D2E/DX2                !
 ! R56   R(43,44)                1.4099         estimate D2E/DX2                !
 ! R57   R(43,61)                1.0806         estimate D2E/DX2                !
 ! R58   R(44,45)                1.4145         estimate D2E/DX2                !
 ! R59   R(44,60)                1.0784         estimate D2E/DX2                !
 ! R60   R(45,46)                1.4145         estimate D2E/DX2                !
 ! R61   R(47,48)                1.4118         estimate D2E/DX2                !
 ! R62   R(47,52)                1.4115         estimate D2E/DX2                !
 ! R63   R(48,49)                1.4085         estimate D2E/DX2                !
 ! R64   R(48,66)                1.0778         estimate D2E/DX2                !
 ! R65   R(49,50)                1.4071         estimate D2E/DX2                !
 ! R66   R(49,67)                1.0802         estimate D2E/DX2                !
 ! R67   R(50,51)                1.407          estimate D2E/DX2                !
 ! R68   R(50,68)                1.0803         estimate D2E/DX2                !
 ! R69   R(51,52)                1.4082         estimate D2E/DX2                !
 ! R70   R(51,69)                1.0802         estimate D2E/DX2                !
 ! R71   R(52,70)                1.0797         estimate D2E/DX2                !
 ! R72   R(53,54)                1.413          estimate D2E/DX2                !
 ! R73   R(53,58)                1.4135         estimate D2E/DX2                !
 ! R74   R(54,56)                1.408          estimate D2E/DX2                !
 ! R75   R(54,64)                1.0806         estimate D2E/DX2                !
 ! R76   R(55,56)                1.4067         estimate D2E/DX2                !
 ! R77   R(55,57)                1.4068         estimate D2E/DX2                !
 ! R78   R(55,72)                1.0804         estimate D2E/DX2                !
 ! R79   R(56,73)                1.0804         estimate D2E/DX2                !
 ! R80   R(57,58)                1.4085         estimate D2E/DX2                !
 ! R81   R(57,71)                1.0803         estimate D2E/DX2                !
 ! R82   R(58,65)                1.0795         estimate D2E/DX2                !
 ! R83   R(75,76)                2.3355         estimate D2E/DX2                !
 ! R84   R(75,77)                2.3372         estimate D2E/DX2                !
 ! A1    A(2,1,12)              96.0072         estimate D2E/DX2                !
 ! A2    A(2,1,18)             107.2296         estimate D2E/DX2                !
 ! A3    A(2,1,75)             113.1214         estimate D2E/DX2                !
 ! A4    A(12,1,18)            106.8923         estimate D2E/DX2                !
 ! A5    A(12,1,75)            119.6284         estimate D2E/DX2                !
 ! A6    A(18,1,75)            112.3131         estimate D2E/DX2                !
 ! A7    A(1,2,3)              124.5194         estimate D2E/DX2                !
 ! A8    A(1,2,7)              116.5838         estimate D2E/DX2                !
 ! A9    A(3,2,7)              118.5139         estimate D2E/DX2                !
 ! A10   A(2,3,4)              120.3047         estimate D2E/DX2                !
 ! A11   A(2,3,24)             120.0179         estimate D2E/DX2                !
 ! A12   A(4,3,24)             119.664          estimate D2E/DX2                !
 ! A13   A(3,4,5)              120.392          estimate D2E/DX2                !
 ! A14   A(3,4,26)             119.7151         estimate D2E/DX2                !
 ! A15   A(5,4,26)             119.8384         estimate D2E/DX2                !
 ! A16   A(4,5,6)              120.0219         estimate D2E/DX2                !
 ! A17   A(4,5,25)             118.3394         estimate D2E/DX2                !
 ! A18   A(6,5,25)             121.5882         estimate D2E/DX2                !
 ! A19   A(5,6,7)              118.3044         estimate D2E/DX2                !
 ! A20   A(5,6,9)              124.1093         estimate D2E/DX2                !
 ! A21   A(7,6,9)              117.4802         estimate D2E/DX2                !
 ! A22   A(2,7,6)              122.2229         estimate D2E/DX2                !
 ! A23   A(2,7,8)              118.0709         estimate D2E/DX2                !
 ! A24   A(6,7,8)              119.4504         estimate D2E/DX2                !
 ! A25   A(7,8,46)             114.7556         estimate D2E/DX2                !
 ! A26   A(6,9,10)             111.4169         estimate D2E/DX2                !
 ! A27   A(6,9,11)             109.1062         estimate D2E/DX2                !
 ! A28   A(6,9,45)             107.4878         estimate D2E/DX2                !
 ! A29   A(10,9,11)            108.3312         estimate D2E/DX2                !
 ! A30   A(10,9,45)            111.3465         estimate D2E/DX2                !
 ! A31   A(11,9,45)            109.1107         estimate D2E/DX2                !
 ! A32   A(9,10,27)            111.3151         estimate D2E/DX2                !
 ! A33   A(9,10,28)            112.0073         estimate D2E/DX2                !
 ! A34   A(9,10,62)            112.0655         estimate D2E/DX2                !
 ! A35   A(27,10,28)           108.0005         estimate D2E/DX2                !
 ! A36   A(27,10,62)           107.9892         estimate D2E/DX2                !
 ! A37   A(28,10,62)           105.1569         estimate D2E/DX2                !
 ! A38   A(9,11,29)            111.3955         estimate D2E/DX2                !
 ! A39   A(9,11,30)            111.3218         estimate D2E/DX2                !
 ! A40   A(9,11,63)            111.3446         estimate D2E/DX2                !
 ! A41   A(29,11,30)           107.3743         estimate D2E/DX2                !
 ! A42   A(29,11,63)           107.3826         estimate D2E/DX2                !
 ! A43   A(30,11,63)           107.8167         estimate D2E/DX2                !
 ! A44   A(1,12,13)            122.4854         estimate D2E/DX2                !
 ! A45   A(1,12,17)            119.5837         estimate D2E/DX2                !
 ! A46   A(13,12,17)           117.8763         estimate D2E/DX2                !
 ! A47   A(12,13,14)           121.1311         estimate D2E/DX2                !
 ! A48   A(12,13,35)           121.091          estimate D2E/DX2                !
 ! A49   A(14,13,35)           117.7702         estimate D2E/DX2                !
 ! A50   A(13,14,15)           120.1117         estimate D2E/DX2                !
 ! A51   A(13,14,36)           119.9634         estimate D2E/DX2                !
 ! A52   A(15,14,36)           119.9238         estimate D2E/DX2                !
 ! A53   A(14,15,16)           119.5944         estimate D2E/DX2                !
 ! A54   A(14,15,37)           120.2406         estimate D2E/DX2                !
 ! A55   A(16,15,37)           120.165          estimate D2E/DX2                !
 ! A56   A(15,16,17)           120.0084         estimate D2E/DX2                !
 ! A57   A(15,16,38)           120.0971         estimate D2E/DX2                !
 ! A58   A(17,16,38)           119.8927         estimate D2E/DX2                !
 ! A59   A(12,17,16)           121.2747         estimate D2E/DX2                !
 ! A60   A(12,17,39)           120.3223         estimate D2E/DX2                !
 ! A61   A(16,17,39)           118.403          estimate D2E/DX2                !
 ! A62   A(1,18,19)            119.3186         estimate D2E/DX2                !
 ! A63   A(1,18,23)            122.4197         estimate D2E/DX2                !
 ! A64   A(19,18,23)           118.0823         estimate D2E/DX2                !
 ! A65   A(18,19,21)           121.1567         estimate D2E/DX2                !
 ! A66   A(18,19,31)           119.8209         estimate D2E/DX2                !
 ! A67   A(21,19,31)           119.0209         estimate D2E/DX2                !
 ! A68   A(21,20,22)           119.6607         estimate D2E/DX2                !
 ! A69   A(21,20,32)           120.1793         estimate D2E/DX2                !
 ! A70   A(22,20,32)           120.1476         estimate D2E/DX2                !
 ! A71   A(19,21,20)           119.9439         estimate D2E/DX2                !
 ! A72   A(19,21,74)           120.0844         estimate D2E/DX2                !
 ! A73   A(20,21,74)           119.968          estimate D2E/DX2                !
 ! A74   A(20,22,23)           120.0691         estimate D2E/DX2                !
 ! A75   A(20,22,33)           119.9745         estimate D2E/DX2                !
 ! A76   A(23,22,33)           119.9501         estimate D2E/DX2                !
 ! A77   A(18,23,22)           121.0062         estimate D2E/DX2                !
 ! A78   A(18,23,34)           120.5997         estimate D2E/DX2                !
 ! A79   A(22,23,34)           118.3743         estimate D2E/DX2                !
 ! A80   A(41,40,47)           110.1331         estimate D2E/DX2                !
 ! A81   A(41,40,53)            99.2705         estimate D2E/DX2                !
 ! A82   A(41,40,75)           113.864          estimate D2E/DX2                !
 ! A83   A(47,40,53)           100.9757         estimate D2E/DX2                !
 ! A84   A(47,40,75)           115.5535         estimate D2E/DX2                !
 ! A85   A(53,40,75)           115.2112         estimate D2E/DX2                !
 ! A86   A(40,41,42)           123.6572         estimate D2E/DX2                !
 ! A87   A(40,41,46)           117.9234         estimate D2E/DX2                !
 ! A88   A(42,41,46)           118.3823         estimate D2E/DX2                !
 ! A89   A(41,42,43)           120.3903         estimate D2E/DX2                !
 ! A90   A(41,42,59)           119.8643         estimate D2E/DX2                !
 ! A91   A(43,42,59)           119.7369         estimate D2E/DX2                !
 ! A92   A(42,43,44)           120.4455         estimate D2E/DX2                !
 ! A93   A(42,43,61)           119.7036         estimate D2E/DX2                !
 ! A94   A(44,43,61)           119.8501         estimate D2E/DX2                !
 ! A95   A(43,44,45)           120.098          estimate D2E/DX2                !
 ! A96   A(43,44,60)           118.3553         estimate D2E/DX2                !
 ! A97   A(45,44,60)           121.546          estimate D2E/DX2                !
 ! A98   A(9,45,44)            124.0688         estimate D2E/DX2                !
 ! A99   A(9,45,46)            117.666          estimate D2E/DX2                !
 ! A100  A(44,45,46)           118.2502         estimate D2E/DX2                !
 ! A101  A(8,46,41)            118.4789         estimate D2E/DX2                !
 ! A102  A(8,46,45)            119.1568         estimate D2E/DX2                !
 ! A103  A(41,46,45)           122.3471         estimate D2E/DX2                !
 ! A104  A(40,47,48)           122.3296         estimate D2E/DX2                !
 ! A105  A(40,47,52)           118.8629         estimate D2E/DX2                !
 ! A106  A(48,47,52)           118.7805         estimate D2E/DX2                !
 ! A107  A(47,48,49)           120.6536         estimate D2E/DX2                !
 ! A108  A(47,48,66)           120.4656         estimate D2E/DX2                !
 ! A109  A(49,48,66)           118.8806         estimate D2E/DX2                !
 ! A110  A(48,49,50)           120.0472         estimate D2E/DX2                !
 ! A111  A(48,49,67)           119.9584         estimate D2E/DX2                !
 ! A112  A(50,49,67)           119.9938         estimate D2E/DX2                !
 ! A113  A(49,50,51)           119.7956         estimate D2E/DX2                !
 ! A114  A(49,50,68)           120.0981         estimate D2E/DX2                !
 ! A115  A(51,50,68)           120.1059         estimate D2E/DX2                !
 ! A116  A(50,51,52)           119.9706         estimate D2E/DX2                !
 ! A117  A(50,51,69)           119.9596         estimate D2E/DX2                !
 ! A118  A(52,51,69)           120.0697         estimate D2E/DX2                !
 ! A119  A(47,52,51)           120.752          estimate D2E/DX2                !
 ! A120  A(47,52,70)           119.9824         estimate D2E/DX2                !
 ! A121  A(51,52,70)           119.2648         estimate D2E/DX2                !
 ! A122  A(40,53,54)           119.8647         estimate D2E/DX2                !
 ! A123  A(40,53,58)           121.715          estimate D2E/DX2                !
 ! A124  A(54,53,58)           118.4195         estimate D2E/DX2                !
 ! A125  A(53,54,56)           120.97           estimate D2E/DX2                !
 ! A126  A(53,54,64)           119.8003         estimate D2E/DX2                !
 ! A127  A(56,54,64)           119.2287         estimate D2E/DX2                !
 ! A128  A(56,55,57)           119.7337         estimate D2E/DX2                !
 ! A129  A(56,55,72)           120.1205         estimate D2E/DX2                !
 ! A130  A(57,55,72)           120.1451         estimate D2E/DX2                !
 ! A131  A(54,56,55)           119.9721         estimate D2E/DX2                !
 ! A132  A(54,56,73)           119.9641         estimate D2E/DX2                !
 ! A133  A(55,56,73)           120.0632         estimate D2E/DX2                !
 ! A134  A(55,57,58)           120.0811         estimate D2E/DX2                !
 ! A135  A(55,57,71)           119.9887         estimate D2E/DX2                !
 ! A136  A(58,57,71)           119.9301         estimate D2E/DX2                !
 ! A137  A(53,58,57)           120.8224         estimate D2E/DX2                !
 ! A138  A(53,58,65)           120.581          estimate D2E/DX2                !
 ! A139  A(57,58,65)           118.5966         estimate D2E/DX2                !
 ! A140  A(1,75,40)             97.966          estimate D2E/DX2                !
 ! A141  A(1,75,77)             87.7195         estimate D2E/DX2                !
 ! A142  A(40,75,76)            88.624          estimate D2E/DX2                !
 ! A143  A(76,75,77)            85.7014         estimate D2E/DX2                !
 ! A144  L(1,75,76,77,-1)      173.4209         estimate D2E/DX2                !
 ! A145  L(40,75,77,76,-1)     174.3254         estimate D2E/DX2                !
 ! A146  L(1,75,76,77,-2)      180.553          estimate D2E/DX2                !
 ! A147  L(40,75,77,76,-2)     181.3246         estimate D2E/DX2                !
 ! D1    D(12,1,2,3)           -70.5464         estimate D2E/DX2                !
 ! D2    D(12,1,2,7)           102.2221         estimate D2E/DX2                !
 ! D3    D(18,1,2,3)            39.2416         estimate D2E/DX2                !
 ! D4    D(18,1,2,7)          -147.99           estimate D2E/DX2                !
 ! D5    D(75,1,2,3)           163.6188         estimate D2E/DX2                !
 ! D6    D(75,1,2,7)           -23.6128         estimate D2E/DX2                !
 ! D7    D(2,1,12,13)          132.5481         estimate D2E/DX2                !
 ! D8    D(2,1,12,17)          -44.7043         estimate D2E/DX2                !
 ! D9    D(18,1,12,13)          22.4747         estimate D2E/DX2                !
 ! D10   D(18,1,12,17)        -154.7778         estimate D2E/DX2                !
 ! D11   D(75,1,12,13)        -106.5152         estimate D2E/DX2                !
 ! D12   D(75,1,12,17)          76.2323         estimate D2E/DX2                !
 ! D13   D(2,1,18,19)         -168.5301         estimate D2E/DX2                !
 ! D14   D(2,1,18,23)           16.4337         estimate D2E/DX2                !
 ! D15   D(12,1,18,19)         -66.4847         estimate D2E/DX2                !
 ! D16   D(12,1,18,23)         118.4791         estimate D2E/DX2                !
 ! D17   D(75,1,18,19)          66.6026         estimate D2E/DX2                !
 ! D18   D(75,1,18,23)        -108.4337         estimate D2E/DX2                !
 ! D19   D(2,1,75,40)           82.7312         estimate D2E/DX2                !
 ! D20   D(2,1,75,77)          -95.9869         estimate D2E/DX2                !
 ! D21   D(12,1,75,40)         -29.2157         estimate D2E/DX2                !
 ! D22   D(12,1,75,77)         152.0662         estimate D2E/DX2                !
 ! D23   D(18,1,75,40)        -155.7101         estimate D2E/DX2                !
 ! D24   D(18,1,75,77)          25.5717         estimate D2E/DX2                !
 ! D25   D(1,2,3,4)            174.6796         estimate D2E/DX2                !
 ! D26   D(1,2,3,24)            -3.9828         estimate D2E/DX2                !
 ! D27   D(7,2,3,4)              2.0401         estimate D2E/DX2                !
 ! D28   D(7,2,3,24)          -176.6223         estimate D2E/DX2                !
 ! D29   D(1,2,7,6)           -170.8268         estimate D2E/DX2                !
 ! D30   D(1,2,7,8)              3.3268         estimate D2E/DX2                !
 ! D31   D(3,2,7,6)              2.3946         estimate D2E/DX2                !
 ! D32   D(3,2,7,8)            176.5482         estimate D2E/DX2                !
 ! D33   D(2,3,4,5)             -3.4038         estimate D2E/DX2                !
 ! D34   D(2,3,4,26)           179.2835         estimate D2E/DX2                !
 ! D35   D(24,3,4,5)           175.2633         estimate D2E/DX2                !
 ! D36   D(24,3,4,26)           -2.0493         estimate D2E/DX2                !
 ! D37   D(3,4,5,6)              0.3541         estimate D2E/DX2                !
 ! D38   D(3,4,5,25)          -177.103          estimate D2E/DX2                !
 ! D39   D(26,4,5,6)           177.6635         estimate D2E/DX2                !
 ! D40   D(26,4,5,25)            0.2063         estimate D2E/DX2                !
 ! D41   D(4,5,6,7)              3.9043         estimate D2E/DX2                !
 ! D42   D(4,5,6,9)           -172.2498         estimate D2E/DX2                !
 ! D43   D(25,5,6,7)          -178.7231         estimate D2E/DX2                !
 ! D44   D(25,5,6,9)             5.1227         estimate D2E/DX2                !
 ! D45   D(5,6,7,2)             -5.3568         estimate D2E/DX2                !
 ! D46   D(5,6,7,8)           -179.4323         estimate D2E/DX2                !
 ! D47   D(9,6,7,2)            171.0544         estimate D2E/DX2                !
 ! D48   D(9,6,7,8)             -3.0212         estimate D2E/DX2                !
 ! D49   D(5,6,9,10)            21.444          estimate D2E/DX2                !
 ! D50   D(5,6,9,11)           -98.1206         estimate D2E/DX2                !
 ! D51   D(5,6,9,45)           143.6886         estimate D2E/DX2                !
 ! D52   D(7,6,9,10)          -154.7394         estimate D2E/DX2                !
 ! D53   D(7,6,9,11)            85.696          estimate D2E/DX2                !
 ! D54   D(7,6,9,45)           -32.4948         estimate D2E/DX2                !
 ! D55   D(2,7,8,46)          -131.2146         estimate D2E/DX2                !
 ! D56   D(6,7,8,46)            43.1061         estimate D2E/DX2                !
 ! D57   D(7,8,46,41)          135.4133         estimate D2E/DX2                !
 ! D58   D(7,8,46,45)          -43.1151         estimate D2E/DX2                !
 ! D59   D(6,9,10,27)           60.0367         estimate D2E/DX2                !
 ! D60   D(6,9,10,28)          -60.9936         estimate D2E/DX2                !
 ! D61   D(6,9,10,62)         -178.9069         estimate D2E/DX2                !
 ! D62   D(11,9,10,27)        -179.9401         estimate D2E/DX2                !
 ! D63   D(11,9,10,28)          59.0297         estimate D2E/DX2                !
 ! D64   D(11,9,10,62)         -58.8837         estimate D2E/DX2                !
 ! D65   D(45,9,10,27)         -59.9542         estimate D2E/DX2                !
 ! D66   D(45,9,10,28)         179.0156         estimate D2E/DX2                !
 ! D67   D(45,9,10,62)          61.1022         estimate D2E/DX2                !
 ! D68   D(6,9,11,29)          -58.574          estimate D2E/DX2                !
 ! D69   D(6,9,11,30)           61.2416         estimate D2E/DX2                !
 ! D70   D(6,9,11,63)         -178.4156         estimate D2E/DX2                !
 ! D71   D(10,9,11,29)         179.9683         estimate D2E/DX2                !
 ! D72   D(10,9,11,30)         -60.2161         estimate D2E/DX2                !
 ! D73   D(10,9,11,63)          60.1268         estimate D2E/DX2                !
 ! D74   D(45,9,11,29)          58.5936         estimate D2E/DX2                !
 ! D75   D(45,9,11,30)         178.4092         estimate D2E/DX2                !
 ! D76   D(45,9,11,63)         -61.2479         estimate D2E/DX2                !
 ! D77   D(6,9,45,44)         -146.1252         estimate D2E/DX2                !
 ! D78   D(6,9,45,46)           32.4407         estimate D2E/DX2                !
 ! D79   D(10,9,45,44)         -23.8369         estimate D2E/DX2                !
 ! D80   D(10,9,45,46)         154.729          estimate D2E/DX2                !
 ! D81   D(11,9,45,44)          95.6869         estimate D2E/DX2                !
 ! D82   D(11,9,45,46)         -85.7472         estimate D2E/DX2                !
 ! D83   D(1,12,13,14)        -177.9701         estimate D2E/DX2                !
 ! D84   D(1,12,13,35)           0.9979         estimate D2E/DX2                !
 ! D85   D(17,12,13,14)         -0.6731         estimate D2E/DX2                !
 ! D86   D(17,12,13,35)        178.2949         estimate D2E/DX2                !
 ! D87   D(1,12,17,16)         177.7511         estimate D2E/DX2                !
 ! D88   D(1,12,17,39)          -2.1691         estimate D2E/DX2                !
 ! D89   D(13,12,17,16)          0.3729         estimate D2E/DX2                !
 ! D90   D(13,12,17,39)       -179.5473         estimate D2E/DX2                !
 ! D91   D(12,13,14,15)          0.4602         estimate D2E/DX2                !
 ! D92   D(12,13,14,36)       -179.9189         estimate D2E/DX2                !
 ! D93   D(35,13,14,15)       -178.541          estimate D2E/DX2                !
 ! D94   D(35,13,14,36)          1.0799         estimate D2E/DX2                !
 ! D95   D(13,14,15,16)          0.072          estimate D2E/DX2                !
 ! D96   D(13,14,15,37)       -179.931          estimate D2E/DX2                !
 ! D97   D(36,14,15,16)       -179.549          estimate D2E/DX2                !
 ! D98   D(36,14,15,37)          0.4479         estimate D2E/DX2                !
 ! D99   D(14,15,16,17)         -0.3684         estimate D2E/DX2                !
 ! D100  D(14,15,16,38)       -179.881          estimate D2E/DX2                !
 ! D101  D(37,15,16,17)        179.6347         estimate D2E/DX2                !
 ! D102  D(37,15,16,38)          0.1221         estimate D2E/DX2                !
 ! D103  D(15,16,17,12)          0.1422         estimate D2E/DX2                !
 ! D104  D(15,16,17,39)       -179.9361         estimate D2E/DX2                !
 ! D105  D(38,16,17,12)        179.6558         estimate D2E/DX2                !
 ! D106  D(38,16,17,39)         -0.4225         estimate D2E/DX2                !
 ! D107  D(1,18,19,21)        -178.4016         estimate D2E/DX2                !
 ! D108  D(1,18,19,31)           1.1436         estimate D2E/DX2                !
 ! D109  D(23,18,19,21)         -3.1503         estimate D2E/DX2                !
 ! D110  D(23,18,19,31)        176.3948         estimate D2E/DX2                !
 ! D111  D(1,18,23,22)         178.2063         estimate D2E/DX2                !
 ! D112  D(1,18,23,34)          -0.1517         estimate D2E/DX2                !
 ! D113  D(19,18,23,22)          3.1116         estimate D2E/DX2                !
 ! D114  D(19,18,23,34)       -175.2464         estimate D2E/DX2                !
 ! D115  D(18,19,21,20)          1.208          estimate D2E/DX2                !
 ! D116  D(18,19,21,74)       -179.4902         estimate D2E/DX2                !
 ! D117  D(31,19,21,20)       -178.3407         estimate D2E/DX2                !
 ! D118  D(31,19,21,74)          0.961          estimate D2E/DX2                !
 ! D119  D(22,20,21,19)          0.8538         estimate D2E/DX2                !
 ! D120  D(22,20,21,74)       -178.4488         estimate D2E/DX2                !
 ! D121  D(32,20,21,19)        179.5738         estimate D2E/DX2                !
 ! D122  D(32,20,21,74)          0.2712         estimate D2E/DX2                !
 ! D123  D(21,20,22,23)         -0.8881         estimate D2E/DX2                !
 ! D124  D(21,20,22,33)        178.198          estimate D2E/DX2                !
 ! D125  D(32,20,22,23)       -179.6086         estimate D2E/DX2                !
 ! D126  D(32,20,22,33)         -0.5225         estimate D2E/DX2                !
 ! D127  D(20,22,23,18)         -1.1367         estimate D2E/DX2                !
 ! D128  D(20,22,23,34)        177.257          estimate D2E/DX2                !
 ! D129  D(33,22,23,18)        179.7769         estimate D2E/DX2                !
 ! D130  D(33,22,23,34)         -1.8294         estimate D2E/DX2                !
 ! D131  D(47,40,41,42)         63.3214         estimate D2E/DX2                !
 ! D132  D(47,40,41,46)       -118.9343         estimate D2E/DX2                !
 ! D133  D(53,40,41,42)        -42.0638         estimate D2E/DX2                !
 ! D134  D(53,40,41,46)        135.6805         estimate D2E/DX2                !
 ! D135  D(75,40,41,42)       -165.0304         estimate D2E/DX2                !
 ! D136  D(75,40,41,46)         12.7139         estimate D2E/DX2                !
 ! D137  D(41,40,47,48)        -22.5568         estimate D2E/DX2                !
 ! D138  D(41,40,47,52)        159.3562         estimate D2E/DX2                !
 ! D139  D(53,40,47,48)         81.6768         estimate D2E/DX2                !
 ! D140  D(53,40,47,52)        -96.4102         estimate D2E/DX2                !
 ! D141  D(75,40,47,48)       -153.3171         estimate D2E/DX2                !
 ! D142  D(75,40,47,52)         28.5959         estimate D2E/DX2                !
 ! D143  D(41,40,53,54)        -44.7347         estimate D2E/DX2                !
 ! D144  D(41,40,53,58)        135.6063         estimate D2E/DX2                !
 ! D145  D(47,40,53,54)       -157.4972         estimate D2E/DX2                !
 ! D146  D(47,40,53,58)         22.8438         estimate D2E/DX2                !
 ! D147  D(75,40,53,54)         77.2658         estimate D2E/DX2                !
 ! D148  D(75,40,53,58)       -102.3931         estimate D2E/DX2                !
 ! D149  D(41,40,75,1)         -73.4698         estimate D2E/DX2                !
 ! D150  D(41,40,75,76)        106.9347         estimate D2E/DX2                !
 ! D151  D(47,40,75,1)          55.4846         estimate D2E/DX2                !
 ! D152  D(47,40,75,76)       -124.1109         estimate D2E/DX2                !
 ! D153  D(53,40,75,1)         172.7656         estimate D2E/DX2                !
 ! D154  D(53,40,75,76)         -6.8298         estimate D2E/DX2                !
 ! D155  D(40,41,42,43)        178.9934         estimate D2E/DX2                !
 ! D156  D(40,41,42,59)          0.0535         estimate D2E/DX2                !
 ! D157  D(46,41,42,43)          1.2589         estimate D2E/DX2                !
 ! D158  D(46,41,42,59)       -177.6811         estimate D2E/DX2                !
 ! D159  D(40,41,46,8)           0.3232         estimate D2E/DX2                !
 ! D160  D(40,41,46,45)        178.802          estimate D2E/DX2                !
 ! D161  D(42,41,46,8)         178.1891         estimate D2E/DX2                !
 ! D162  D(42,41,46,45)         -3.3321         estimate D2E/DX2                !
 ! D163  D(41,42,43,44)          0.6416         estimate D2E/DX2                !
 ! D164  D(41,42,43,61)       -179.6717         estimate D2E/DX2                !
 ! D165  D(59,42,43,44)        179.583          estimate D2E/DX2                !
 ! D166  D(59,42,43,61)         -0.7304         estimate D2E/DX2                !
 ! D167  D(42,43,44,45)         -0.5715         estimate D2E/DX2                !
 ! D168  D(42,43,44,60)        179.1106         estimate D2E/DX2                !
 ! D169  D(61,43,44,45)        179.7423         estimate D2E/DX2                !
 ! D170  D(61,43,44,60)         -0.5756         estimate D2E/DX2                !
 ! D171  D(43,44,45,9)         177.1777         estimate D2E/DX2                !
 ! D172  D(43,44,45,46)         -1.3804         estimate D2E/DX2                !
 ! D173  D(60,44,45,9)          -2.494          estimate D2E/DX2                !
 ! D174  D(60,44,45,46)        178.9479         estimate D2E/DX2                !
 ! D175  D(9,45,46,8)            3.2119         estimate D2E/DX2                !
 ! D176  D(9,45,46,41)        -175.257          estimate D2E/DX2                !
 ! D177  D(44,45,46,8)        -178.1367         estimate D2E/DX2                !
 ! D178  D(44,45,46,41)          3.3945         estimate D2E/DX2                !
 ! D179  D(40,47,48,49)       -178.258          estimate D2E/DX2                !
 ! D180  D(40,47,48,66)          1.9085         estimate D2E/DX2                !
 ! D181  D(52,47,48,49)         -0.1695         estimate D2E/DX2                !
 ! D182  D(52,47,48,66)        179.997          estimate D2E/DX2                !
 ! D183  D(40,47,52,51)        178.4319         estimate D2E/DX2                !
 ! D184  D(40,47,52,70)         -1.232          estimate D2E/DX2                !
 ! D185  D(48,47,52,51)          0.2762         estimate D2E/DX2                !
 ! D186  D(48,47,52,70)       -179.3877         estimate D2E/DX2                !
 ! D187  D(47,48,49,50)         -0.0119         estimate D2E/DX2                !
 ! D188  D(47,48,49,67)       -179.7416         estimate D2E/DX2                !
 ! D189  D(66,48,49,50)        179.8242         estimate D2E/DX2                !
 ! D190  D(66,48,49,67)          0.0945         estimate D2E/DX2                !
 ! D191  D(48,49,50,51)          0.0903         estimate D2E/DX2                !
 ! D192  D(48,49,50,68)       -179.6799         estimate D2E/DX2                !
 ! D193  D(67,49,50,51)        179.8199         estimate D2E/DX2                !
 ! D194  D(67,49,50,68)          0.0497         estimate D2E/DX2                !
 ! D195  D(49,50,51,52)          0.0152         estimate D2E/DX2                !
 ! D196  D(49,50,51,69)       -179.8793         estimate D2E/DX2                !
 ! D197  D(68,50,51,52)        179.7854         estimate D2E/DX2                !
 ! D198  D(68,50,51,69)         -0.1092         estimate D2E/DX2                !
 ! D199  D(50,51,52,47)         -0.2012         estimate D2E/DX2                !
 ! D200  D(50,51,52,70)        179.4651         estimate D2E/DX2                !
 ! D201  D(69,51,52,47)        179.6932         estimate D2E/DX2                !
 ! D202  D(69,51,52,70)         -0.6405         estimate D2E/DX2                !
 ! D203  D(40,53,54,56)        179.9745         estimate D2E/DX2                !
 ! D204  D(40,53,54,64)         -0.3779         estimate D2E/DX2                !
 ! D205  D(58,53,54,56)         -0.3553         estimate D2E/DX2                !
 ! D206  D(58,53,54,64)        179.2923         estimate D2E/DX2                !
 ! D207  D(40,53,58,57)       -179.9387         estimate D2E/DX2                !
 ! D208  D(40,53,58,65)          0.0524         estimate D2E/DX2                !
 ! D209  D(54,53,58,57)          0.3975         estimate D2E/DX2                !
 ! D210  D(54,53,58,65)       -179.6114         estimate D2E/DX2                !
 ! D211  D(53,54,56,55)          0.0949         estimate D2E/DX2                !
 ! D212  D(53,54,56,73)        179.8053         estimate D2E/DX2                !
 ! D213  D(64,54,56,55)       -179.5547         estimate D2E/DX2                !
 ! D214  D(64,54,56,73)          0.1557         estimate D2E/DX2                !
 ! D215  D(57,55,56,54)          0.1311         estimate D2E/DX2                !
 ! D216  D(57,55,56,73)       -179.579          estimate D2E/DX2                !
 ! D217  D(72,55,56,54)        179.8317         estimate D2E/DX2                !
 ! D218  D(72,55,56,73)          0.1216         estimate D2E/DX2                !
 ! D219  D(56,55,57,58)         -0.0889         estimate D2E/DX2                !
 ! D220  D(56,55,57,71)        179.7598         estimate D2E/DX2                !
 ! D221  D(72,55,57,58)       -179.7895         estimate D2E/DX2                !
 ! D222  D(72,55,57,71)          0.0592         estimate D2E/DX2                !
 ! D223  D(55,57,58,53)         -0.1801         estimate D2E/DX2                !
 ! D224  D(55,57,58,65)        179.8286         estimate D2E/DX2                !
 ! D225  D(71,57,58,53)        179.9711         estimate D2E/DX2                !
 ! D226  D(71,57,58,65)         -0.0202         estimate D2E/DX2                !
 --------------------------------------------------------------------------------
 Trust Radius=3.00D-01 FncErr=1.00D-07 GrdErr=1.00D-06
 Number of steps in this run=    462 maximum allowed number of steps=    462.
 GradGradGradGradGradGradGradGradGradGradGradGradGradGradGradGradGradGrad

 Stoichiometry    C39H32Cl2OP2Pd
 Framework group  C1[X(C39H32Cl2OP2Pd)]
 Deg. of freedom   225
 Full point group                 C1      NOp   1
 Largest Abelian subgroup         C1      NOp   1
 Largest concise Abelian subgroup C1      NOp   1
                         Standard orientation:                         
 ---------------------------------------------------------------------
 Center     Atomic      Atomic             Coordinates (Angstroms)
 Number     Number       Type             X           Y           Z
 ---------------------------------------------------------------------
      1         15           0       -1.898528   -0.315198   -0.034214
      2          6           0       -2.195768    1.534075    0.089769
      3          6           0       -3.362285    2.122200    0.621202
      4          6           0       -3.447065    3.520566    0.774848
      5          6           0       -2.342155    4.340289    0.466656
      6          6           0       -1.141485    3.761198   -0.007046
      7          6           0       -1.115358    2.367011   -0.237919
      8          8           0        0.032886    1.782836   -0.683306
      9          6           0        0.174911    4.541509   -0.209496
     10          6           0        0.198620    5.838925    0.634922
     11          6           0        0.308736    4.927166   -1.693076
     12          6           0       -1.688401   -0.606248    1.819303
     13          6           0       -2.348517   -1.653132    2.503347
     14          6           0       -2.204362   -1.818548    3.894645
     15          6           0       -1.401543   -0.930083    4.631074
     16          6           0       -0.746196    0.123366    3.970688
     17          6           0       -0.889481    0.279385    2.578888
     18          6           0       -3.534828   -1.112155   -0.532356
     19          6           0       -3.669483   -2.516983   -0.463382
     20          6           0       -5.934708   -2.393064   -1.353088
     21          6           0       -4.861650   -3.154899   -0.857275
     22          6           0       -5.802546   -0.997676   -1.469116
     23          6           0       -4.607440   -0.366600   -1.072536
     24          1           0       -4.187967    1.499000    0.932858
     25          1           0       -2.427208    5.400995    0.641278
     26          1           0       -4.349788    3.962012    1.172208
     27          1           0        0.107498    5.620700    1.699664
     28          1           0       -0.606538    6.519150    0.360661
     29          1           0        0.298253    4.046004   -2.335752
     30          1           0       -0.511365    5.571570   -2.010705
     31          1           0       -2.845290   -3.118762   -0.110262
     32          1           0       -6.848519   -2.879170   -1.662801
     33          1           0       -6.612896   -0.410781   -1.876570
     34          1           0       -4.518667    0.698663   -1.215046
     35          1           0       -2.990791   -2.340036    1.980766
     36          1           0       -2.716309   -2.625699    4.397898
     37          1           0       -1.288639   -1.055661    5.697968
     38          1           0       -0.125860    0.809577    4.528230
     39          1           0       -0.373902    1.096604    2.098139
     40         15           0        1.753514   -0.547571   -0.023876
     41          6           0        2.119588    1.260904    0.331589
     42          6           0        3.312163    1.713394    0.933432
     43          6           0        3.524133    3.089759    1.149261
     44          6           0        2.541575    4.030656    0.778853
     45          6           0        1.337588    3.598613    0.175092
     46          6           0        1.169166    2.215359   -0.067710
     47          6           0        1.666889   -1.514383    1.577247
     48          6           0        2.290616   -1.068935    2.762921
     49          6           0        2.233588   -1.842432    3.938584
     50          6           0        1.550117   -3.072397    3.940268
     51          6           0        0.926210   -3.527134    2.764046
     52          6           0        0.987582   -2.751649    1.590203
     53          6           0        3.440876   -1.077058   -0.671641
     54          6           0        4.127574   -0.259333   -1.596989
     55          6           0        5.984829   -1.835679   -1.674883
     56          6           0        5.390322   -0.632341   -2.095920
     57          6           0        5.311571   -2.662993   -0.757608
     58          6           0        4.048147   -2.285917   -0.262060
     59          1           0        4.075911    1.002643    1.215586
     60          1           0        2.732753    5.074128    0.972743
     61          1           0        4.444251    3.424611    1.606443
     62          1           0        1.115286    6.407718    0.485394
     63          1           0        1.242300    5.457446   -1.882593
     64          1           0        3.678771    0.664067   -1.934087
     65          1           0        3.551682   -2.940084    0.438618
     66          1           0        2.816724   -0.128485    2.783547
     67          1           0        2.711239   -1.488870    4.840578
     68          1           0        1.501458   -3.663900    4.842940
     69          1           0        0.399152   -4.470016    2.762881
     70          1           0        0.512196   -3.115613    0.691715
     71          1           0        5.762604   -3.589932   -0.434442
     72          1           0        6.952396   -2.125536   -2.058231
     73          1           0        5.899601    0.003724   -2.805376
     74          1           0       -4.948687   -4.229591   -0.789591
     75         46           0       -0.092270   -0.891227   -1.552544
     76         17           0        1.453568   -1.504490   -3.192366
     77         17           0       -1.712526   -1.231369   -3.202237
 ---------------------------------------------------------------------
 Rotational constants (GHZ):      0.0739881      0.0607000      0.0540106
 General basis read from cards:  (6D, 7F)
 ======================================================================================================
                                       Pseudopotential Parameters
 ======================================================================================================
  Center     Atomic      Valence      Angular      Power
  Number     Number     Electrons     Momentum     of R      Exponent        Coefficient   SO-Coeffient
 ======================================================================================================
    1         15
                                   No pseudopotential on this center.
    2          6
                                   No pseudopotential on this center.
    3          6
                                   No pseudopotential on this center.
    4          6
                                   No pseudopotential on this center.
    5          6
                                   No pseudopotential on this center.
    6          6
                                   No pseudopotential on this center.
    7          6
                                   No pseudopotential on this center.
    8          8
                                   No pseudopotential on this center.
    9          6
                                   No pseudopotential on this center.
   10          6
                                   No pseudopotential on this center.
   11          6
                                   No pseudopotential on this center.
   12          6
                                   No pseudopotential on this center.
   13          6
                                   No pseudopotential on this center.
   14          6
                                   No pseudopotential on this center.
   15          6
                                   No pseudopotential on this center.
   16          6
                                   No pseudopotential on this center.
   17          6
                                   No pseudopotential on this center.
   18          6
                                   No pseudopotential on this center.
   19          6
                                   No pseudopotential on this center.
   20          6
                                   No pseudopotential on this center.
   21          6
                                   No pseudopotential on this center.
   22          6
                                   No pseudopotential on this center.
   23          6
                                   No pseudopotential on this center.
   24          1
                                   No pseudopotential on this center.
   25          1
                                   No pseudopotential on this center.
   26          1
                                   No pseudopotential on this center.
   27          1
                                   No pseudopotential on this center.
   28          1
                                   No pseudopotential on this center.
   29          1
                                   No pseudopotential on this center.
   30          1
                                   No pseudopotential on this center.
   31          1
                                   No pseudopotential on this center.
   32          1
                                   No pseudopotential on this center.
   33          1
                                   No pseudopotential on this center.
   34          1
                                   No pseudopotential on this center.
   35          1
                                   No pseudopotential on this center.
   36          1
                                   No pseudopotential on this center.
   37          1
                                   No pseudopotential on this center.
   38          1
                                   No pseudopotential on this center.
   39          1
                                   No pseudopotential on this center.
   40         15
                                   No pseudopotential on this center.
   41          6
                                   No pseudopotential on this center.
   42          6
                                   No pseudopotential on this center.
   43          6
                                   No pseudopotential on this center.
   44          6
                                   No pseudopotential on this center.
   45          6
                                   No pseudopotential on this center.
   46          6
                                   No pseudopotential on this center.
   47          6
                                   No pseudopotential on this center.
   48          6
                                   No pseudopotential on this center.
   49          6
                                   No pseudopotential on this center.
   50          6
                                   No pseudopotential on this center.
   51          6
                                   No pseudopotential on this center.
   52          6
                                   No pseudopotential on this center.
   53          6
                                   No pseudopotential on this center.
   54          6
                                   No pseudopotential on this center.
   55          6
                                   No pseudopotential on this center.
   56          6
                                   No pseudopotential on this center.
   57          6
                                   No pseudopotential on this center.
   58          6
                                   No pseudopotential on this center.
   59          1
                                   No pseudopotential on this center.
   60          1
                                   No pseudopotential on this center.
   61          1
                                   No pseudopotential on this center.
   62          1
                                   No pseudopotential on this center.
   63          1
                                   No pseudopotential on this center.
   64          1
                                   No pseudopotential on this center.
   65          1
                                   No pseudopotential on this center.
   66          1
                                   No pseudopotential on this center.
   67          1
                                   No pseudopotential on this center.
   68          1
                                   No pseudopotential on this center.
   69          1
                                   No pseudopotential on this center.
   70          1
                                   No pseudopotential on this center.
   71          1
                                   No pseudopotential on this center.
   72          1
                                   No pseudopotential on this center.
   73          1
                                   No pseudopotential on this center.
   74          1
                                   No pseudopotential on this center.
   75         46           18
                                      F and up 
                                                     0      598.3336444       -0.05631770    0.00000000
                                                     1      162.4298290      -20.12880360    0.00000000
                                                     2       51.5714771     -105.81979230    0.00000000
                                                     2       16.4888260      -42.57333450    0.00000000
                                                     2        5.8287656       -3.61650860    0.00000000
                                      S - F
                                                     0       73.3806304        3.00036510    0.00000000
                                                     1       14.7550438       32.43500930    0.00000000
                                                     2       17.8350204      459.08303830    0.00000000
                                                     2       12.7111477     -868.06290290    0.00000000
                                                     2        9.3292063      514.47260980    0.00000000
                                      P - F
                                                     0       55.6689877        4.95930990    0.00000000
                                                     1       64.2337771       21.17110290    0.00000000
                                                     2       17.6254952      605.05600920    0.00000000
                                                     2       11.9058155     -726.96418460    0.00000000
                                                     2        8.5100832      396.32748830    0.00000000
                                      D - F
                                                     0       49.9994728        3.05087450    0.00000000
                                                     1       39.7477547       22.25065800    0.00000000
                                                     2       11.4321366      674.83576980    0.00000000
                                                     2        9.1790080    -1040.85540480    0.00000000
                                                     2        7.5624429      505.93751470    0.00000000
   76         17
                                   No pseudopotential on this center.
   77         17
                                   No pseudopotential on this center.
 ======================================================================================================
 There are   764 symmetry adapted cartesian basis functions of A   symmetry.
 There are   764 symmetry adapted basis functions of A   symmetry.
   764 basis functions,  1505 primitive gaussians,   764 cartesian basis functions
   178 alpha electrons      178 beta electrons
       nuclear repulsion energy      7081.0535362444 Hartrees.
 NAtoms=   77 NActive=   77 NUniq=   77 SFac= 1.00D+00 NAtFMM=   60 NAOKFM=T Big=T
 Integral buffers will be    131072 words long.
 Raffenetti 2 integral format.
 Two-electron integral symmetry is turned on.
 Nuclear repulsion after empirical dispersion term =     7080.8986639829 Hartrees.
 Standard density basis: Auto (5D, 7F)
  3340 Density fitting functions
 There are  3340 symmetry adapted density basis functions of A   symmetry.
 One-electron integrals computed using PRISM.
   1 Symmetry operations used in ECPInt.
 ECPInt:  NShTT=   31878 NPrTT=  214492 LenC2=   24598 LenP2D=   82840.
 LDataN:  DoStor=T MaxTD1= 5 Len=  102
 NBasis=   764 RedAO= T EigKep=  3.82D-04  NBF=   764
 NBsUse=   764 1.00D-06 EigRej= -1.00D+00 NBFU=   764
 NBasis=      764 NBas6D=      764 NTT=      292230   NTT6D=   292230
 NDBShl=      660 NDBF=       3340 NDBF6D=     3940  NNucDB=        0
 IDenFi=        2 ISolve=        0 FullAP=F BlkAPC=T NucTyp=        0
 TolInv= 1.00D-06 TolIt=  1.00D-10 IR12=0.
 FoFCou: FMM=F IPFlag=           0 FMFlag=           0 FMFlg1=           0
         NFxFlg=           0 DoJE=F BraDBF=T KetDBF=T FulRan=T
         wScrn=  0.000000 ICntrl=     600 IOpCl=  3 I1Cent=           6 NGrid=           0
         NMat0=    1 NMatS0=   3940 NMatT0=    0 NMatD0=    1 NMtDS0=    0 NMtDT0=    0
 Petite list used in FoFCou.
 DBF EigKep=  1.18D-06 EigRej= -1.00D+00
 NDBF=   3340  NBFD=  3340
 NRank=  3340 NBFDU=  3340
 S*AI*S=  12.5544321976    
 Defaulting to unpruned grid for atomic number  46.
 ExpMin= 2.62D-02 ExpMax= 2.52D+04 ExpMxC= 3.78D+03 IAcc=3 IRadAn=         5 AccDes= 0.00D+00
 Harris functional with IExCor= 1009 and IRadAn=       5 diagonalized for initial guess.
 HarFok:  IExCor= 1009 AccDes= 0.00D+00 IRadAn=         5 IDoV= 1 UseB2=F ITyADJ=14
 ICtDFT=  3500011 ScaDFX=  1.000000  1.000000  1.000000  1.000000
 Defaulting to unpruned grid for atomic number  46.
 Defaulting to unpruned grid for atomic number  46.
 Defaulting to unpruned grid for atomic number  46.
 Defaulting to unpruned grid for atomic number  46.
 Defaulting to unpruned grid for atomic number  46.
 Defaulting to unpruned grid for atomic number  46.
 Defaulting to unpruned grid for atomic number  46.
 Defaulting to unpruned grid for atomic number  46.
 Defaulting to unpruned grid for atomic number  46.
 Defaulting to unpruned grid for atomic number  46.
 Defaulting to unpruned grid for atomic number  46.
 Defaulting to unpruned grid for atomic number  46.
 Defaulting to unpruned grid for atomic number  46.
 Defaulting to unpruned grid for atomic number  46.
 FoFCou: FMM=F IPFlag=           0 FMFlag=      100000 FMFlg1=        2001
         NFxFlg=           0 DoJE=T BraDBF=F KetDBF=T FulRan=T
         wScrn=  0.000000 ICntrl=     500 IOpCl=  0 I1Cent=   200000004 NGrid=           0
         NMat0=    1 NMatS0=      1 NMatT0=    0 NMatD0=    1 NMtDS0=    0 NMtDT0=    0
 Petite list used in FoFCou.
 Requested convergence on RMS density matrix=1.00D-08 within 500 cycles.
 Requested convergence on MAX density matrix=1.00D-06.
 Requested convergence on             energy=1.00D-06.
 No special actions if energy rises.
 FoFCou: FMM=F IPFlag=           0 FMFlag=      100000 FMFlg1=        2001
         NFxFlg=           0 DoJE=T BraDBF=T KetDBF=F FulRan=T
         wScrn=  0.000000 ICntrl=     500 IOpCl=  0 I1Cent=           5 NGrid=           0
         NMat0=    1 NMatS0=      1 NMatT0=    0 NMatD0=    1 NMtDS0=    0 NMtDT0=    0
 Symmetry not used in FoFCou.
 Defaulting to unpruned grid for atomic number  46.
 Defaulting to unpruned grid for atomic number  46.
 Defaulting to unpruned grid for atomic number  46.
 Defaulting to unpruned grid for atomic number  46.
 Defaulting to unpruned grid for atomic number  46.
 Defaulting to unpruned grid for atomic number  46.
 Defaulting to unpruned grid for atomic number  46.
 Defaulting to unpruned grid for atomic number  46.
 Defaulting to unpruned grid for atomic number  46.
 Defaulting to unpruned grid for atomic number  46.
 Defaulting to unpruned grid for atomic number  46.
 Defaulting to unpruned grid for atomic number  46.
 Defaulting to unpruned grid for atomic number  46.
 Defaulting to unpruned grid for atomic number  46.
 EnCoef did     5 forward-backward iterations
 EnCoef did   100 forward-backward iterations
 Problem detected with inexpensive integrals.
 Switching to full accuracy and repeating last cycle.
 EnCoef did     3 forward-backward iterations
 EnCoef did   100 forward-backward iterations
 EnCoef did   100 forward-backward iterations
 EnCoef did   100 forward-backward iterations
 EnCoef did   100 forward-backward iterations
 EnCoef did     6 forward-backward iterations
 EnCoef did   100 forward-backward iterations
 EnCoef did     3 forward-backward iterations
 EnCoef did     2 forward-backward iterations
 EnCoef did     3 forward-backward iterations
 EnCoef did     2 forward-backward iterations
 EnCoef did     2 forward-backward iterations
 EnCoef did     5 forward-backward iterations
 Restarting incremental Fock formation.
 SCF Done:  E(RPBE-PBE) =  -3307.99053191     A.U. after   36 cycles
            NFock= 36  Conv=0.65D-08     -V/T= 2.0320

 **********************************************************************

            Population analysis using the SCF density.

 **********************************************************************

 Orbital symmetries:
       Occupied  (A) (A) (A) (A) (A) (A) (A) (A) (A) (A) (A) (A)
                 (A) (A) (A) (A) (A) (A) (A) (A) (A) (A) (A) (A)
                 (A) (A) (A) (A) (A) (A) (A) (A) (A) (A) (A) (A)
                 (A) (A) (A) (A) (A) (A) (A) (A) (A) (A) (A) (A)
                 (A) (A) (A) (A) (A) (A) (A) (A) (A) (A) (A) (A)
                 (A) (A) (A) (A) (A) (A) (A) (A) (A) (A) (A) (A)
                 (A) (A) (A) (A) (A) (A) (A) (A) (A) (A) (A) (A)
                 (A) (A) (A) (A) (A) (A) (A) (A) (A) (A) (A) (A)
                 (A) (A) (A) (A) (A) (A) (A) (A) (A) (A) (A) (A)
                 (A) (A) (A) (A) (A) (A) (A) (A) (A) (A) (A) (A)
                 (A) (A) (A) (A) (A) (A) (A) (A) (A) (A) (A) (A)
                 (A) (A) (A) (A) (A) (A) (A) (A) (A) (A) (A) (A)
                 (A) (A) (A) (A) (A) (A) (A) (A) (A) (A) (A) (A)
                 (A) (A) (A) (A) (A) (A) (A) (A) (A) (A) (A) (A)
                 (A) (A) (A) (A) (A) (A) (A) (A) (A) (A)
       Virtual   (A) (A) (A) (A) (A) (A) (A) (A) (A) (A) (A) (A)
                 (A) (A) (A) (A) (A) (A) (A) (A) (A) (A) (A) (A)
                 (A) (A) (A) (A) (A) (A) (A) (A) (A) (A) (A) (A)
                 (A) (A) (A) (A) (A) (A) (A) (A) (A) (A) (A) (A)
                 (A) (A) (A) (A) (A) (A) (A) (A) (A) (A) (A) (A)
                 (A) (A) (A) (A) (A) (A) (A) (A) (A) (A) (A) (A)
                 (A) (A) (A) (A) (A) (A) (A) (A) (A) (A) (A) (A)
                 (A) (A) (A) (A) (A) (A) (A) (A) (A) (A) (A) (A)
                 (A) (A) (A) (A) (A) (A) (A) (A) (A) (A) (A) (A)
                 (A) (A) (A) (A) (A) (A) (A) (A) (A) (A) (A) (A)
                 (A) (A) (A) (A) (A) (A) (A) (A) (A) (A) (A) (A)
                 (A) (A) (A) (A) (A) (A) (A) (A) (A) (A) (A) (A)
                 (A) (A) (A) (A) (A) (A) (A) (A) (A) (A) (A) (A)
                 (A) (A) (A) (A) (A) (A) (A) (A) (A) (A) (A) (A)
                 (A) (A) (A) (A) (A) (A) (A) (A) (A) (A) (A) (A)
                 (A) (A) (A) (A) (A) (A) (A) (A) (A) (A) (A) (A)
                 (A) (A) (A) (A) (A) (A) (A) (A) (A) (A) (A) (A)
                 (A) (A) (A) (A) (A) (A) (A) (A) (A) (A) (A) (A)
                 (A) (A) (A) (A) (A) (A) (A) (A) (A) (A) (A) (A)
                 (A) (A) (A) (A) (A) (A) (A) (A) (A) (A) (A) (A)
                 (A) (A) (A) (A) (A) (A) (A) (A) (A) (A) (A) (A)
                 (A) (A) (A) (A) (A) (A) (A) (A) (A) (A) (A) (A)
                 (A) (A) (A) (A) (A) (A) (A) (A) (A) (A) (A) (A)
                 (A) (A) (A) (A) (A) (A) (A) (A) (A) (A) (A) (A)
                 (A) (A) (A) (A) (A) (A) (A) (A) (A) (A) (A) (A)
                 (A) (A) (A) (A) (A) (A) (A) (A) (A) (A) (A) (A)
                 (A) (A) (A) (A) (A) (A) (A) (A) (A) (A) (A) (A)
                 (A) (A) (A) (A) (A) (A) (A) (A) (A) (A) (A) (A)
                 (A) (A) (A) (A) (A) (A) (A) (A) (A) (A) (A) (A)
                 (A) (A) (A) (A) (A) (A) (A) (A) (A) (A) (A) (A)
                 (A) (A) (A) (A) (A) (A) (A) (A) (A) (A) (A) (A)
                 (A) (A) (A) (A) (A) (A) (A) (A) (A) (A) (A) (A)
                 (A) (A) (A) (A) (A) (A) (A) (A) (A) (A) (A) (A)
                 (A) (A) (A) (A) (A) (A) (A) (A) (A) (A) (A) (A)
                 (A) (A) (A) (A) (A) (A) (A) (A) (A) (A) (A) (A)
                 (A) (A) (A) (A) (A) (A) (A) (A) (A) (A) (A) (A)
                 (A) (A) (A) (A) (A) (A) (A) (A) (A) (A) (A) (A)
                 (A) (A) (A) (A) (A) (A) (A) (A) (A) (A) (A) (A)
                 (A) (A) (A) (A) (A) (A) (A) (A) (A) (A) (A) (A)
                 (A) (A) (A) (A) (A) (A) (A) (A) (A) (A) (A) (A)
                 (A) (A) (A) (A) (A) (A) (A) (A) (A) (A) (A) (A)
                 (A) (A) (A) (A) (A) (A) (A) (A) (A) (A) (A) (A)
                 (A) (A) (A) (A) (A) (A) (A) (A) (A) (A) (A) (A)
                 (A) (A) (A) (A) (A) (A) (A) (A) (A) (A) (A) (A)
                 (A) (A) (A) (A) (A) (A) (A) (A) (A) (A) (A) (A)
                 (A) (A) (A) (A) (A) (A) (A) (A) (A) (A) (A) (A)
                 (A) (A) (A) (A) (A) (A) (A) (A) (A) (A) (A) (A)
                 (A) (A) (A) (A) (A) (A) (A) (A) (A) (A) (A) (A)
                 (A) (A) (A) (A) (A) (A) (A) (A) (A) (A)
 The electronic state is 1-A.
 Alpha  occ. eigenvalues -- -100.58219-100.58209 -76.37753 -76.37444 -18.83679
 Alpha  occ. eigenvalues --   -9.98201  -9.97832  -9.94556  -9.93556  -9.93298
 Alpha  occ. eigenvalues --   -9.93261  -9.93010  -9.92819  -9.92807  -9.92611
 Alpha  occ. eigenvalues --   -9.92579  -9.92558  -9.92270  -9.92258  -9.92022
 Alpha  occ. eigenvalues --   -9.91749  -9.91619  -9.91499  -9.91455  -9.91448
 Alpha  occ. eigenvalues --   -9.91438  -9.91362  -9.91326  -9.91200  -9.91187
 Alpha  occ. eigenvalues --   -9.91104  -9.91048  -9.90823  -9.90659  -9.90400
 Alpha  occ. eigenvalues --   -9.90350  -9.90316  -9.90266  -9.89923  -9.89899
 Alpha  occ. eigenvalues --   -9.89671  -9.89613  -9.89545  -9.89388  -9.07739
 Alpha  occ. eigenvalues --   -9.07728  -6.90123  -6.90122  -6.89326  -6.89317
 Alpha  occ. eigenvalues --   -6.89247  -6.89222  -6.35450  -6.35163  -4.57309
 Alpha  occ. eigenvalues --   -4.57251  -4.57016  -4.56957  -4.56930  -4.56651
 Alpha  occ. eigenvalues --   -3.18919  -1.95830  -1.95736  -1.91724  -1.02708
 Alpha  occ. eigenvalues --   -0.79841  -0.79603  -0.78196  -0.77706  -0.76985
 Alpha  occ. eigenvalues --   -0.76278  -0.75319  -0.71362  -0.70171  -0.69781
 Alpha  occ. eigenvalues --   -0.68274  -0.68088  -0.67745  -0.67610  -0.67098
 Alpha  occ. eigenvalues --   -0.66936  -0.66499  -0.66468  -0.66156  -0.63605
 Alpha  occ. eigenvalues --   -0.63345  -0.62514  -0.60458  -0.60008  -0.58874
 Alpha  occ. eigenvalues --   -0.58168  -0.55288  -0.55251  -0.54595  -0.54323
 Alpha  occ. eigenvalues --   -0.53949  -0.53807  -0.53271  -0.53205  -0.51808
 Alpha  occ. eigenvalues --   -0.51332  -0.50139  -0.49968  -0.46815  -0.46516
 Alpha  occ. eigenvalues --   -0.45969  -0.45583  -0.44904  -0.43863  -0.43679
 Alpha  occ. eigenvalues --   -0.42389  -0.42319  -0.41237  -0.41033  -0.40797
 Alpha  occ. eigenvalues --   -0.40536  -0.40449  -0.40050  -0.39842  -0.39633
 Alpha  occ. eigenvalues --   -0.39454  -0.38983  -0.38039  -0.37892  -0.37675
 Alpha  occ. eigenvalues --   -0.37457  -0.37078  -0.36951  -0.36582  -0.36470
 Alpha  occ. eigenvalues --   -0.36281  -0.35391  -0.35172  -0.35020  -0.34542
 Alpha  occ. eigenvalues --   -0.34160  -0.34105  -0.33891  -0.33177  -0.32531
 Alpha  occ. eigenvalues --   -0.32273  -0.31771  -0.31592  -0.31319  -0.31049
 Alpha  occ. eigenvalues --   -0.30798  -0.30748  -0.30606  -0.30317  -0.30024
 Alpha  occ. eigenvalues --   -0.29767  -0.29352  -0.28971  -0.28831  -0.28758
 Alpha  occ. eigenvalues --   -0.27885  -0.26246  -0.25381  -0.24827  -0.24331
 Alpha  occ. eigenvalues --   -0.23903  -0.23485  -0.23177  -0.22936  -0.22884
 Alpha  occ. eigenvalues --   -0.22678  -0.21934  -0.21821  -0.21744  -0.21130
 Alpha  occ. eigenvalues --   -0.21027  -0.20787  -0.20484  -0.17872  -0.17144
 Alpha  occ. eigenvalues --   -0.16933  -0.16287  -0.16035
 Alpha virt. eigenvalues --   -0.09213  -0.07392  -0.06350  -0.05604  -0.05239
 Alpha virt. eigenvalues --   -0.04904  -0.04471  -0.04202  -0.03761  -0.03260
 Alpha virt. eigenvalues --   -0.03100  -0.02907  -0.02172  -0.00661   0.02279
 Alpha virt. eigenvalues --    0.02305   0.02629   0.04417   0.04876   0.05187
 Alpha virt. eigenvalues --    0.05731   0.05991   0.06816   0.07272   0.07938
 Alpha virt. eigenvalues --    0.08141   0.08394   0.08883   0.09022   0.09277
 Alpha virt. eigenvalues --    0.09527   0.10028   0.10253   0.10405   0.10710
 Alpha virt. eigenvalues --    0.11112   0.11233   0.11743   0.11869   0.12124
 Alpha virt. eigenvalues --    0.12202   0.12541   0.12856   0.13249   0.13390
 Alpha virt. eigenvalues --    0.13478   0.14119   0.14196   0.14622   0.14786
 Alpha virt. eigenvalues --    0.15586   0.15856   0.15975   0.16353   0.16603
 Alpha virt. eigenvalues --    0.16769   0.16774   0.17069   0.17297   0.17730
 Alpha virt. eigenvalues --    0.18072   0.18247   0.18731   0.18972   0.19676
 Alpha virt. eigenvalues --    0.19836   0.20218   0.21754   0.22193   0.22984
 Alpha virt. eigenvalues --    0.23245   0.24007   0.24643   0.25001   0.25170
 Alpha virt. eigenvalues --    0.25399   0.25488   0.25948   0.26058   0.26361
 Alpha virt. eigenvalues --    0.26924   0.27343   0.27581   0.27654   0.27745
 Alpha virt. eigenvalues --    0.28218   0.28786   0.29099   0.29539   0.29849
 Alpha virt. eigenvalues --    0.30566   0.31578   0.32010   0.32536   0.32921
 Alpha virt. eigenvalues --    0.33749   0.35445   0.36087   0.36602   0.37808
 Alpha virt. eigenvalues --    0.39229   0.40109   0.40546   0.40884   0.41196
 Alpha virt. eigenvalues --    0.43163   0.43783   0.44320   0.44520   0.44592
 Alpha virt. eigenvalues --    0.45597   0.45879   0.46611   0.46782   0.46864
 Alpha virt. eigenvalues --    0.47074   0.47187   0.47700   0.48199   0.48296
 Alpha virt. eigenvalues --    0.48547   0.48655   0.48996   0.49178   0.49395
 Alpha virt. eigenvalues --    0.49477   0.49999   0.50349   0.50504   0.50944
 Alpha virt. eigenvalues --    0.50993   0.51132   0.51310   0.51506   0.51550
 Alpha virt. eigenvalues --    0.51860   0.52580   0.52692   0.53063   0.53116
 Alpha virt. eigenvalues --    0.53468   0.53688   0.53760   0.53928   0.54396
 Alpha virt. eigenvalues --    0.54616   0.54761   0.55468   0.55656   0.55741
 Alpha virt. eigenvalues --    0.55874   0.55984   0.56099   0.56490   0.56677
 Alpha virt. eigenvalues --    0.56981   0.57414   0.57603   0.57673   0.57691
 Alpha virt. eigenvalues --    0.58119   0.58415   0.58646   0.58960   0.59423
 Alpha virt. eigenvalues --    0.59506   0.59655   0.60066   0.60359   0.61141
 Alpha virt. eigenvalues --    0.61841   0.61924   0.62425   0.63626   0.63779
 Alpha virt. eigenvalues --    0.64040   0.64505   0.64855   0.66117   0.66716
 Alpha virt. eigenvalues --    0.67378   0.67447   0.67792   0.68103   0.68515
 Alpha virt. eigenvalues --    0.68751   0.69513   0.69798   0.70763   0.71233
 Alpha virt. eigenvalues --    0.71553   0.72944   0.73179   0.73252   0.74195
 Alpha virt. eigenvalues --    0.74693   0.75069   0.75666   0.75837   0.76382
 Alpha virt. eigenvalues --    0.76758   0.77071   0.77229   0.77693   0.78117
 Alpha virt. eigenvalues --    0.78336   0.78552   0.78714   0.78901   0.78990
 Alpha virt. eigenvalues --    0.79524   0.79673   0.79871   0.80162   0.80344
 Alpha virt. eigenvalues --    0.80762   0.80999   0.81364   0.81896   0.82033
 Alpha virt. eigenvalues --    0.82649   0.82694   0.83103   0.83602   0.83736
 Alpha virt. eigenvalues --    0.84241   0.84447   0.84726   0.84857   0.85040
 Alpha virt. eigenvalues --    0.85439   0.85775   0.85929   0.85975   0.86944
 Alpha virt. eigenvalues --    0.87339   0.87752   0.88211   0.88657   0.88784
 Alpha virt. eigenvalues --    0.88961   0.89210   0.89349   0.89808   0.90388
 Alpha virt. eigenvalues --    0.90757   0.91133   0.91342   0.91924   0.92423
 Alpha virt. eigenvalues --    0.92505   0.92903   0.93031   0.93739   0.94057
 Alpha virt. eigenvalues --    0.94380   0.94640   0.94915   0.95264   0.95927
 Alpha virt. eigenvalues --    0.96136   0.96663   0.97247   0.97512   0.98126
 Alpha virt. eigenvalues --    0.98546   0.98819   0.98980   0.99484   0.99836
 Alpha virt. eigenvalues --    1.00666   1.01012   1.01331   1.01921   1.02504
 Alpha virt. eigenvalues --    1.02857   1.03912   1.04137   1.04274   1.04794
 Alpha virt. eigenvalues --    1.05409   1.06232   1.06863   1.07324   1.07961
[...]
 0.00042928,0.00040333,0.00058021,-0.00006396,-0.00082279,-0.00061440,0
 .00030598,-0.00029206,0.00071166,-0.00008128,-0.00015147,0.00002905,0.
 00007239,0.00003761,0.00002343,-0.00006025,0.00002223,0.00000288,-0.00
 006126,-0.00027018,-0.00000463,0.00000502,0.00000181,-0.00001001,-0.00
 000786,0.00001880,0.00001761,-0.00025860,0.00047719,-0.00001084,-0.000
 09302,0.00012335,-0.00004643,-0.00003171,0.00007406,0.00002399,-0.0000
 8736,-0.00002245,-0.00007276,0.,0.00003761,-0.00000383,0.00003304,-0.0
 0001292,0.00013887,0.00097558,0.00011333,0.00002880,-0.00003931,0.0000
 0425,0.00002511,-0.00005027,0.00008739,0.00008647,0.00000644,-0.000041
 56,0.00001320,-0.00001039,-0.00002474,-0.01422606,-0.04441457,0.088477
 38,-0.00134956,-0.00292142,0.00157795,-0.00210138,-0.00000555,-0.00039
 360,0.00054287,0.00024366,0.00086305,-0.00021027,0.00001874,0.00010711
 ,-0.00013816,0.00002108,0.00009982,0.00002895,-0.00001549,-0.00021440,
 -0.00093174,0.00008252,0.00000830,0.00089343,-0.00085748,0.00056668,-0
 .00018089,0.00001420,-0.00011223,0.00011802,0.00000877,0.00002496,0.00
 007897,-0.00007436,0.00007927,-0.00235121,0.00048975,0.00012545,-0.000
 04064,-0.00034395,0.00085221,0.00020329,-0.00036919,-0.00009924,-0.000
 15065,-0.00010542,-0.00004764,0.00013897,-0.00013492,-0.00014237,-0.00
 043299,-0.00007091,-0.00057204,-0.00081425,0.00007218,0.00075315,-0.00
 006387,0.00020292,0.00015850,-0.00001619,0.00001043,-0.00004956,-0.000
 00887,0.00010826,0.00002068,0.00001463,0.00016052,0.00002297,-0.000006
 23,-0.00017282,-0.00069986,0.00005219,-0.00002052,-0.00006545,-0.00002
 432,0.00000620,0.00004131,-0.00004445,-0.00001023,0.00014025,-0.000011
 58,0.00002448,-0.00003026,-0.00001538,-0.00001941,-0.00003929,-0.00008
 760,-0.00003757,-0.00003668,-0.00000705,-0.00002263,-0.00002180,-0.000
 00255,-0.00002818,0.00016203,-0.00005781,-0.00000141,-0.00004524,-0.00
 007081,0.00005707,-0.00005740,0.00000502,-0.00007723,0.00003842,-0.000
 09493,0.00010793,0.00005002,-0.00004897,-0.00012820,-0.00004788,-0.000
 08220,-0.00003285,0.00003590,-0.00002682,-0.00010523,0.00006869,-0.000
 02604,0.00011974,0.00006548,-0.00356386,-0.00206529,0.00203660,0.00079
 050,-0.00073440,-0.00025181,-0.00014526,0.00010811,0.00019392,0.000240
 91,-0.00011292,0.00000654,-0.00007722,0.00008030,-0.00004756,0.0001788
 0,-0.00007796,0.00035353,-0.00096910,0.00106741,-0.00098030,0.00032920
 ,-0.00024051,0.00009088,0.00008134,-0.00004691,-0.00001242,0.00004552,
 -0.00002983,-0.00002953,0.00004069,0.00003598,0.00000865,0.00007302,-0
 .00005533,0.00006125,-0.00002604,0.00023462,-0.00021688,-0.00008097,0.
 00263298,-0.00002113,-0.00077506,0.00014539,-0.00187924,0.00040087,-0.
 00002039,0.00025378,0.00036075,0.00073612,-0.00073412,-0.00048303,0.00
 017158,0.00020523,0.00066675,-0.00023541,-0.00042419,-0.00002991,-0.00
 014099,0.00014055,-0.00002129,-0.00003069,0.00001701,0.00000065,-0.000
 02374,0.00004183,0.00003526,-0.00000731,0.00006720,0.00005733,0.000042
 72,0.00007612,-0.00033631,0.00063745,0.00033630,-0.00009958,0.00008782
 ,0.00010260,-0.00005198,0.00001429,0.00004296,-0.00002638,0.00000328,0
 .00001479,-0.00003107,0.00001595,0.00001783,-0.00004777,0.00004582,0.0
 0004532,-0.00007478,0.00010350,0.00017240,0.00004309,0.00001404,0.0000
 1471,-0.00002711,-0.00000590,0.00009055,0.00018821,-0.00005777,0.00002
 185,-0.00002770,-0.00000577,-0.00008717,-0.06891628,-0.02164532,0.0127
 9914,0.08500666,-0.00016334,0.00324184,0.00078025,-0.00121066,-0.00020
 055,-0.00021139,0.00022428,0.00007297,0.00047050,-0.00012982,0.0000393
 5,0.00001728,-0.00004105,0.00000193,0.00002220,0.00001604,0.00001705,-
 0.00006472,-0.00038051,0.00001019,-0.00009168,0.00040137,-0.00010901,0
 .00014653,-0.00004651,-0.00001033,-0.00004586,0.00003766,0.00002323,0.
 00001226,0.00001271,-0.00003335,0.00006903,0.00028301,-0.00022087,-0.0
 0007800,0.00003593,0.00010523,0.00014783,-0.00002858,-0.00004272,0.000
 06099,0.00000188,0.00001666,-0.00001052,-0.00004787,-0.00003296,-0.000
 01544,-0.00004876,0.00005795,-0.00008687,-0.00061963,0.00000162,0.0003
 1781,0.00001252,0.00007212,0.00009943,-0.00000971,-0.00000331,0.000004
 99,-0.00001101,0.00004963,-0.00000825,0.00002665,0.00011500,-0.0000290
 4,-0.00000738,-0.00009996,-0.00027356,0.00001130,-0.00001000,-0.000024
 07,-0.00000500,-0.00000373,0.00001426,-0.00001767,0.00000357,0.0000644
 4,0.00000226,0.00001351,-0.00001432,-0.00000879,-0.00000669,-0.0000076
 9,-0.00005124,-0.00002100,-0.00000983,0.00000453,0.00000274,-0.0000129
 2,-0.00000074,-0.00001652,0.00003699,-0.00002402,-0.00000699,-0.000014
 81,-0.00002408,0.00002524,-0.00002658,-0.00002965,-0.00004221,0.000014
 34,0.00002976,0.00001563,-0.00000977,0.00000196,-0.00000999,-0.0000092
 1,-0.00000080,-0.00001058,0.00000017,0.00000231,-0.00001018,0.00000366
 ,-0.00000599,0.00000520,-0.00000598,-0.00199104,-0.00402452,0.00212787
 ,-0.00010487,0.00023361,-0.00019656,0.00016014,-0.00005219,-0.00003307
 ,-0.00003324,0.00002112,0.00000958,0.00000808,-0.00000074,0.00000527,0
 .00002221,0.00001982,0.00006005,-0.00014743,0.00011347,-0.00005833,-0.
 00027080,-0.00035650,0.00036354,-0.00005301,-0.00006757,-0.00004380,0.
 00002140,-0.00002898,-0.00000447,0.00001526,0.00000725,-0.00000040,0.0
 0003033,-0.00001732,0.00002722,0.00000085,0.00010295,-0.00002250,0.000
 09058,-0.00326590,0.00032330,0.00225672,-0.00236759,0.00189573,-0.0003
 6906,-0.00066316,-0.00078580,-0.00055010,0.00014336,0.00092029,0.00118
 864,0.00008603,-0.00000482,-0.00117633,0.00064776,0.00145744,-0.000030
 40,-0.00000049,-0.00002845,-0.00001146,-0.00000963,0.00001058,0.000004
 18,-0.00000536,-0.00001210,0.00000981,-0.00000684,0.00002121,0.0000195
 9,0.00001390,0.00002790,0.00033752,-0.00087469,0.00055102,-0.00001113,
 0.00014043,-0.00005528,-0.00002384,-0.00000023,0.00000543,0.00000432,-
 0.00001814,0.00000123,-0.00000788,-0.00000255,0.00000544,-0.00000775,0
 .00001260,0.00000680,-0.00001570,-0.00001359,0.00005198,0.00000208,0.0
 0002490,-0.00000916,0.00002504,-0.00000217,-0.00004089,0.00003516,0.00
 002703,0.00001516,-0.00000898,-0.00000217,-0.00002895,-0.02294888,-0.0
 2309993,0.00632871,0.01944113,0.02814588,-0.00006710,0.00076114,0.0048
 4043,-0.00105047,-0.00004245,-0.00026900,0.00005749,0.00005957,0.00034
 545,-0.00007881,-0.00001481,0.00000196,-0.00003136,0.00000975,-0.00000
 119,0.00006614,-0.00002698,-0.00006855,-0.00024446,0.00000757,-0.00009
 029,0.00066842,0.00043029,-0.00001739,-0.00001847,0.00000513,-0.000002
 72,0.00000783,0.00000157,0.00000996,0.00000733,-0.00001853,0.00004782,
 0.00050756,0.00001471,-0.00024900,-0.00000088,0.00006088,-0.00016459,-
 0.00006698,0.00002588,0.00003789,-0.00001614,-0.00000172,-0.00007113,-
 0.00000308,0.00014420,0.00006714,0.00010468,-0.00008974,0.00012806,0.0
 0085360,-0.00018685,-0.00051569,0.00007292,-0.00016447,-0.00009365,0.0
 0004513,-0.00002844,0.00000181,0.00000726,-0.00000475,-0.00004844,0.00
 001386,-0.00010969,0.00001209,0.00001915,0.00009915,0.00038482,-0.0000
 0010,0.00001533,0.00000083,0.00000718,0.00000391,-0.00000511,-0.000003
 23,0.00000331,0.00003481,0.00000252,0.00000877,-0.00000534,0.00000678,
 -0.00000699,-0.00000310,-0.00003826,0.00001810,0.00000025,0.00001945,-
 0.00000308,-0.00001691,0.00001685,0.00008180,-0.00012351,0.00001241,-0
 .00000052,0.00001088,0.00002158,-0.00002448,0.00003614,0.00001222,0.00
 001771,-0.00001263,0.00002777,-0.00002160,-0.00001290,0.00001471,0.000
 01764,0.00000689,0.00002299,0.00000219,-0.00001306,-0.00000378,0.00002
 585,-0.00000152,0.00003919,-0.00002245,-0.00003499,-0.00002452,0.00224
 838,-0.00116132,0.00015390,-0.00017869,0.00025717,0.00010461,-0.000037
 68,0.00023208,0.00004005,-0.00003272,-0.00003174,-0.00000810,0.0000103
 2,0.00000050,-0.00013918,-0.00002225,0.00001915,0.00001816,-0.00019664
 ,0.00018896,0.00002710,0.00018044,-0.00023752,0.00010185,0.00011222,0.
 00006337,-0.00001232,0.00000920,0.00000395,-0.00000656,-0.00000924,0.0
 0000185,-0.00001784,0.00000585,0.00003470,-0.00004974,0.00008495,-0.00
 016011,0.00068811,0.00152820,0.00004619,-0.00159868,0.00038205,-0.0023
 7833,-0.00000167,-0.00009482,0.00027099,-0.00017057,0.00053394,0.00014
 625,-0.00035678,0.00022806,0.00020463,0.00036597,-0.00014026,-0.000245
 26,-0.00000934,-0.00000308,0.00001838,0.00001609,0.00002318,-0.0000084
 4,-0.00001064,-0.00000921,0.00000401,-0.00000439,0.00000219,0.00000563
 ,-0.00000105,0.00001315,0.00000961,-0.00024317,0.00138676,-0.00029836,
 0.00003783,0.00005932,-0.00000271,0.00000884,-0.00001899,0.00001735,-0
 .00000519,0.00001703,0.00000326,0.00001183,-0.00000529,0.00000284,0.00
 002849,0.00001550,-0.00000010,0.00006855,-0.00004474,-0.00001307,0.000
 00348,0.00002816,-0.00000970,-0.00004646,0.00006464,0.00003281,0.00001
 421,0.00001546,-0.00008370,0.00002448,0.00000443,0.00004511,0.01666443
 ,0.00678983,-0.01320548,-0.01591042,-0.01303584,0.01087596,-0.00276604
 ,0.00059645,-0.00008417,0.00109533,-0.00036721,0.00030740,0.00013028,-
 0.00026304,-0.00043189,0.00030255,0.00001664,0.00015958,-0.00020025,0.
 00002084,0.00006577,0.00017074,0.00000828,-0.00034766,-0.00138730,0.00
 016049,0.00038077,0.00094451,-0.00014780,-0.00015165,-0.00013198,0.000
 06562,-0.00003123,0.00006737,-0.00003829,0.00002002,0.00007805,-0.0000
 4395,0.00004586,0.00063284,-0.00008370,0.00059849,-0.00018716,-0.00026
 658,-0.00039534,0.00000745,-0.00000035,0.00002684,0.00000736,-0.000044
 55,-0.00001358,0.00006419,-0.00002654,0.00021435,-0.00017296,-0.000407
 51,-0.00013799,-0.00317760,-0.00308117,-0.00205555,-0.00217142,-0.0018
 1001,-0.00028963,0.00003226,0.00027980,-0.00068444,0.00016519,0.000199
 74,0.00041519,0.00053261,-0.00072991,0.00064271,-0.00265197,-0.0016933
 9,-0.00006171,0.00009150,0.00006953,-0.00004805,0.00000037,-0.00000412
 ,-0.00000241,0.00001748,0.00002383,-0.00003787,-0.00001676,0.00001159,
 -0.00000416,0.00001611,-0.00002235,-0.00003686,-0.00004427,0.00002780,
 0.00001272,0.00000690,-0.00004451,-0.00004151,-0.00004414,-0.00012303,
 -0.00012226,-0.00002586,-0.00002382,-0.00002922,0.00003169,0.00004231,
 0.00007170,0.00030780,0.00018191,-0.00014950,0.00007551,0.00012522,0.0
 0011808,-0.00002058,0.00000325,0.00000498,-0.00001550,-0.00002234,0.00
 002204,-0.00005469,-0.00005244,0.00003852,0.00000539,0.00002495,0.0000
 5441,0.00251549,0.00326714,0.00016668,-0.00039839,0.00053182,-0.000110
 90,0.00025078,-0.00024789,-0.00024108,-0.00004522,0.00000667,-0.000079
 58,-0.00002231,0.00003361,-0.00008226,-0.00000170,0.00004169,0.0001251
 5,-0.00039261,0.00035133,-0.00031450,-0.00118029,0.00121974,-0.0014969
 3,0.00035300,0.00048160,0.00060081,0.00014476,0.00009684,-0.00021849,-
 0.00000404,0.00009256,-0.00000518,0.00000407,-0.00002447,-0.00007139,-
 0.00004303,0.00005749,-0.00016665,0.00012540,0.00010915,-0.00019553,0.
 00009223,-0.00003387,0.00012014,-0.00004946,-0.00007304,-0.00005498,-0
 .00012740,0.00010526,0.00009353,0.00002973,-0.00005003,0.00003723,-0.0
 0010838,-0.00007267,-0.00009038,0.00002279,-0.00001500,0.00004495,-0.0
 0000788,0.00000383,-0.00002142,0.00001262,0.00000225,-0.00005824,0.000
 00807,0.00001049,0.00003479,0.00002279,0.00002656,0.00002436,0.0000330
 1,0.00004309,-0.00002123,0.00001901,-0.00000217,-0.00002325,-0.0000818
 1,0.00000192,0.00000904,0.00004337,0.00011087,0.00000589,-0.00000202,0
 .00004174,0.00001364,0.00001301,0.00004554,0.00004955,-0.00011648,-0.0
 0012348,-0.00006625,-0.00001917,0.00002423,0.00001542,-0.00002534,0.00
 001401,-0.00000933,-0.00003129,-0.00000957,0.00000150,0.00003807,-0.00
 000487,-0.00005199,-0.01622435,0.01139516,-0.00285067,-0.00540776,0.00
 589746,-0.00077321,0.02884572,-0.00277032,-0.00670652,0.00083213,0.000
 07328,0.00040293,-0.00054403,-0.00003953,0.00010213,-0.00003705,-0.000
 08018,-0.00001904,-0.00000445,0.00005489,0.00001958,0.00000985,-0.0001
 6401,0.00016981,0.00025220,0.00105865,-0.00029659,-0.00009538,-0.00119
 379,0.00039774,0.00016376,0.00013262,-0.00016585,-0.00003596,-0.000049
 36,0.00012898,-0.00000280,-0.00017176,0.00001019,0.00013111,-0.0006452
 2,0.00021491,0.00052438,-0.00007107,-0.00011926,-0.00004171,0.00004978
 ,-0.00004049,-0.00003472,-0.00001652,0.00005800,0.00001447,0.00004531,
 -0.00002332,-0.00000735,-0.00011515,-0.00010670,-0.00002421,-0.0025755
 0,-0.00053934,0.00010414,-0.00127907,-0.00094045,-0.00087848,-0.000467
 60,0.00054795,-0.00000629,0.00034804,-0.00031043,0.00046804,-0.0001160
 4,0.00036026,-0.00056571,-0.00037912,-0.00112589,-0.00024222,0.0000070
 1,-0.00003697,0.00000314,-0.00000706,-0.00003185,0.00002328,-0.0000153
 9,-0.00003094,0.00000400,0.00004260,0.00001715,-0.00003086,-0.00005070
 ,0.00002441,0.00005350,0.00007497,-0.00014386,0.00000130,-0.00002189,0
 .00008948,0.00007666,0.00002212,0.00019844,0.00020044,-0.00006721,-0.0
 0001070,-0.00000067,-0.00009453,0.00004482,-0.00004564,-0.00015343,-0.
 00012579,0.00019844,-0.00006022,-0.00008303,0.00004548,-0.00000530,-0.
 00002127,-0.00001535,0.00000224,-0.00000471,-0.00000022,0.00002932,-0.
 00002053,-0.00002457,0.00001949,-0.00004673,-0.00003556,0.00091797,-0.
 00190445,-0.00120505,0.00053713,-0.00136190,0.00032121,-0.00059382,0.0
 0048094,0.00048116,0.00012944,0.00003542,0.00016093,0.00006858,-0.0000
 8244,0.00015788,0.00006566,0.00001333,-0.00024132,0.00091533,-0.000885
 21,0.00059392,0.00122096,-0.00118975,0.00187883,-0.00041299,-0.0005293
 8,-0.00082400,-0.00010920,-0.00010516,0.00026517,0.00000452,-0.0000654
 5,-0.00001175,-0.00001235,-0.00002211,0.00008695,0.00004565,0.00008387
 ,0.00020051,0.00029406,-0.00094525,0.00083924,-0.00018115,-0.00042126,
 -0.00027132,0.00007755,0.00001945,0.00005629,0.00015841,-0.00003165,-0
 .00031614,0.00009708,0.00015502,-0.00015097,0.00038057,0.00030148,0.00
 043062,-0.00005178,0.00000738,-0.00010175,-0.00000420,-0.00001815,0.00
 004086,-0.00001949,-0.00000181,0.00012008,0.00000221,-0.00003357,-0.00
 002885,-0.00000402,0.00000274,-0.00005112,-0.00003989,-0.00010398,0.00
 009664,-0.00004945,-0.00003557,0.00007892,0.00007985,0.00001687,-0.000
 00293,-0.00005692,-0.00013785,-0.00000564,-0.00000381,-0.00005373,-0.0
 0002013,-0.00003257,-0.00004569,-0.00005427,0.00016950,0.00011286,0.00
 008918,0.00007082,-0.00004144,-0.00005539,0.00005659,-0.00005151,0.000
 04205,0.00010039,0.00002008,-0.00000290,-0.00001309,-0.00005413,-0.000
 01830,0.01703426,-0.06634445,0.01664567,0.00372451,0.00214047,-0.00096
 065,-0.01591668,0.07923944,0.00022101,0.00022467,-0.00183990,-0.000170
 14,0.00004937,0.00034709,-0.00035796,0.00017808,0.00027839,-0.00004466
 ,-0.00001463,-0.00018690,0.00016167,-0.00001344,-0.00002003,0.00002733
 ,-0.00003231,0.00023653,-0.00066018,-0.00004760,-0.00001642,0.00013242
 ,0.00096434,-0.00056827,0.00001027,-0.00002870,0.00006022,-0.00000739,
 0.00002078,0.00001372,-0.00005992,-0.00000956,0.00009445,0.00035959,-0
 .00009684,0.00039247,-0.00000032,0.00018913,-0.00013770,0.00007363,0.0
 0001459,0.00009027,0.00000533,-0.00003491,0.00003870,-0.00003942,-0.00
 003699,0.00000437,-0.00003795,0.00006344,-0.00002917,-0.00166611,0.000
 16154,0.00049044,-0.00094633,-0.00071290,-0.00084064,-0.00015750,0.000
 33614,0.00037978,0.00022411,-0.00079534,0.00066420,-0.00003472,0.00011
 091,-0.00043092,0.00003646,-0.00085926,0.00019317,0.00007815,0.0000275
 0,-0.00002968,0.00001944,0.00001255,-0.00000701,0.00000966,-0.00001805
 ,-0.00000168,0.00000959,0.00001044,-0.00000957,0.00000689,-0.00000322,
 0.00000978,0.00006481,-0.00001628,0.00005840,0.00001778,0.00001072,0.0
 0000537,0.00001686,0.00038508,-0.00000878,0.00000174,0.00003904,0.0000
 0940,-0.00000707,0.00000979,0.00000702,-0.00006027,0.00014169,-0.00001
 694,0.00004481,0.00012970,0.00001304,0.00002215,0.00003478,-0.00000144
 ,-0.00000498,0.00000025,0.00001023,-0.00000140,-0.00000435,0.00000702,
 0.00002608,-0.00001415,0.00003118,-0.00071979,0.00277646,0.00476587,0.
 00049150,-0.00096273,0.00024237,-0.00018378,0.00013312,0.00028774,0.00
 007503,-0.00001254,0.00004462,0.00003960,-0.00006262,0.00001696,-0.000
 02811,0.00012152,-0.00017509,0.00048066,-0.00050233,0.00014127,-0.0004
 7614,0.00061559,-0.00086041,0.00025581,0.00026330,0.00028850,0.0000285
 8,0.00005793,-0.00011103,0.00000085,0.00004292,-0.00000346,-0.00004599
 ,-0.00001108,-0.00001242,-0.00001798,0.00013288,-0.00020226,-0.0001634
 4,0.00052078,-0.00069532,0.00001985,0.00023881,0.00009457,-0.00008531,
 -0.00002327,-0.00005017,-0.00006110,-0.00002726,0.00013739,0.00005663,
 -0.00008079,0.00008601,-0.00022540,-0.00006012,-0.00003789,-0.00000522
 ,-0.00001829,0.00001179,-0.00001307,-0.00000347,-0.00001481,-0.0000040
 0,0.00001637,0.00003384,-0.00001206,0.00000120,-0.00000665,-0.00001015
 ,0.00001774,-0.00004053,0.00000762,-0.00001017,-0.00007647,0.00002103,
 0.00003297,-0.00004347,-0.00001916,-0.00000878,-0.00000248,0.00001623,
 0.00005862,0.00000714,0.00001601,0.00001339,-0.00000093,0.00001890,0.0
 0002847,0.00002128,-0.00008159,-0.00011557,-0.00007363,-0.00002617,0.0
 0002934,0.00001081,-0.00001912,0.00001813,-0.00001897,-0.00003590,-0.0
 0000915,0.00000469,0.00006765,0.00002031,0.00005949,-0.00448988,0.0161
 7685,-0.01330898,0.00019597,-0.00108779,0.00120456,0.00761799,-0.01869
 673,0.00898588\\0.00000792,-0.00000169,-0.00000900,-0.00000385,0.00000
 881,-0.00000387,-0.00000297,-0.00000481,0.00000255,0.00000202,0.000000
 17,-0.00000371,0.00000165,-0.00000103,0.00000062,-0.00000248,-0.000001
 77,0.00000013,0.00000502,0.00000770,0.00001620,-0.00000320,-0.00001944
 ,-0.00000913,-0.00000397,-0.00000626,0.00000254,0.00000363,0.00000751,
 0.00000016,0.00000067,-0.00000044,-0.00000053,-0.00000650,-0.00000272,
 -0.00001727,0.00000395,-0.00000170,0.00001103,-0.00000034,-0.00000482,
 0.00000211,0.00000015,0.00000008,-0.00000446,0.00000657,0.00000235,0.0
 0000540,0.00000015,0.00000065,0.00000201,-0.00000792,0.00000261,0.0000
 0806,-0.00000148,0.00000043,0.00000194,0.00000112,-0.00000193,0.000000
 38,-0.00000086,0.00000016,-0.00000204,-0.00000083,0.00000068,0.0000019
 7,-0.00000074,-0.00000326,-0.00000404,0.00000041,0.00000297,-0.0000010
 3,0.00000142,-0.00000084,-0.00000012,-0.00000060,-0.00000199,0.0000007
 0,-0.00000118,-0.00000239,0.00000206,-0.00000080,-0.00000087,-0.000001
 61,0.00000087,0.00000189,-0.00000037,-0.00000060,0.00000057,0.00000030
 ,-0.00000019,-0.00000263,-0.00000067,-0.00000171,-0.00000046,0.0000001
 3,-0.00000126,-0.00000159,0.00000002,0.00000087,0.00000047,0.00000298,
 0.00000086,0.00000300,-0.00000305,-0.00000020,-0.00000074,0.00000055,-
 0.00000061,-0.00000096,-0.00000086,0.00000067,-0.00000012,-0.00000012,
 0.00000116,-0.00000166,0.00000232,-0.00000628,-0.00000353,-0.00000232,
 0.00000956,0.00000334,-0.00000742,-0.00000126,-0.00000073,-0.00000119,
 -0.00000103,0.00000238,0.00000007,0.00000205,-0.00000174,0.00000056,-0
 .00000182,0.00000084,-0.00000836,-0.00000668,0.00001428,0.00002013,-0.
 00000341,-0.00000420,-0.00000254,-0.00000080,0.00000726,-0.00000331,-0
 .00000124,-0.00000225,0.00000034,-0.00000040,-0.00000038,0.00000252,0.
 00000295,0.00000606,-0.00000214,-0.00000563,-0.00000650,0.00000225,0.0
 0000254,0.00001180,0.00000987,-0.00000466,-0.00000573,-0.00000566,0.00
 000127,0.00000376,0.00000195,0.00000417,0.00000061,-0.00000187,-0.0000
 0746,-0.00000049,-0.00000081,0.00000710,-0.00000662,-0.00000699,0.0000
 0299,0.00000282,-0.00000244,-0.00000082,-0.00000003,-0.00000095,0.0000
 0065,-0.00000020,0.00000024,0.00000183,-0.00000190,-0.00000128,0.00000
 096,0.00000052,0.00000008,-0.00000119,0.00000238,0.00000005,0.00000316
 ,0.00000097,-0.00000103,0.00000056,0.00000035,0.00000224,0.00000098,-0
 .00000028,-0.00000080,0.00000061,-0.00000090,0.00000061,-0.00000015,-0
 .00000018,0.00000029,0.00000163,0.00000257,-0.00000046,0.00000129,0.00
 000099,-0.00000071,0.00000108,0.00000131,-0.00000075,0.00000006,0.0000
 0033,-0.00000045,-0.00000049,0.00000058,-0.00000002,0.00000191,-0.0000
 0853,0.00001179,0.00000157,-0.00000070,-0.00000129,-0.00000239,0.00000
 581,-0.00000246\\\@


 NEVER LOSE YOUR IGNORANCE, IT CAN'T BE REPLACED.
   -- ANDY CAPP
 Job cpu time:       0 days  9 hours 22 minutes 45.9 seconds.
 File lengths (MBytes):  RWF=   5333 Int=      0 D2E=      0 Chk=    144 Scr=      1
 Normal termination of Gaussian 09 at Wed Nov 17 01:45:15 2021.
