 Entering Gaussian System, Link 0=g09
 Input=XantPhos_3_SPE.com
 Output=XantPhos_3_SPE.log
 Initial command:
 /gstore/apps/gaussian/g09.e01-foss-2017a/g09/l1.exe "/local/22791535/Gau-16599.inp" -scrdir="/local/22791535/"
 Entering Link 1 = /gstore/apps/gaussian/g09.e01-foss-2017a/g09/l1.exe PID=     16600.
  
 Copyright (c) 1988,1990,1992,1993,1995,1998,2003,2009,2015,
            Gaussian, Inc.  All Rights Reserved.
  
 This is part of the Gaussian(R) 09 program.  It is based on
 the Gaussian(R) 03 system (copyright 2003, Gaussian, Inc.),
 the Gaussian(R) 98 system (copyright 1998, Gaussian, Inc.),
 the Gaussian(R) 94 system (copyright 1995, Gaussian, Inc.),
 the Gaussian 92(TM) system (copyright 1992, Gaussian, Inc.),
 the Gaussian 90(TM) system (copyright 1990, Gaussian, Inc.),
 the Gaussian 88(TM) system (copyright 1988, Gaussian, Inc.),
 the Gaussian 86(TM) system (copyright 1986, Carnegie Mellon
 University), and the Gaussian 82(TM) system (copyright 1983,
 Carnegie Mellon University). Gaussian is a federally registered
 trademark of Gaussian, Inc.
  
 This software contains proprietary and confidential information,
 including trade secrets, belonging to Gaussian, Inc.
  
 This software is provided under written license and may be
 used, copied, transmitted, or stored only in accord with that
 written license.
  
 The following legend is applicable only to US Government
 contracts under FAR:
  
                    RESTRICTED RIGHTS LEGEND
  
 Use, reproduction and disclosure by the US Government is
 subject to restrictions as set forth in subparagraphs (a)
 and (c) of the Commercial Computer Software - Restricted
 Rights clause in FAR 52.227-19.
  
 Gaussian, Inc.
 340 Quinnipiac St., Bldg. 40, Wallingford CT 06492
  
  
 ---------------------------------------------------------------
 Warning -- This program may not be used in any manner that
 competes with the business of Gaussian, Inc. or will provide
 assistance to any competitor of Gaussian, Inc.  The licensee
 of this program is prohibited from giving any competitor of
 Gaussian, Inc. access to this program.  By using this program,
 the user acknowledges that Gaussian, Inc. is engaged in the
 business of creating and licensing software in the field of
 computational chemistry and represents and warrants to the
 licensee that it is not a competitor of Gaussian, Inc. and that
 it will not use this program in any manner prohibited above.
 ---------------------------------------------------------------
  

 Cite this work as:
 Gaussian 09, Revision E.01,
 M. J. Frisch, G. W. Trucks, H. B. Schlegel, G. E. Scuseria, 
 M. A. Robb, J. R. Cheeseman, G. Scalmani, V. Barone, B. Mennucci, 
 G. A. Petersson, H. Nakatsuji, M. Caricato, X. Li, H. P. Hratchian, 
 A. F. Izmaylov, J. Bloino, G. Zheng, J. L. Sonnenberg, M. Hada, 
 M. Ehara, K. Toyota, R. Fukuda, J. Hasegawa, M. Ishida, T. Nakajima, 
 Y. Honda, O. Kitao, H. Nakai, T. Vreven, J. A. Montgomery, Jr., 
 J. E. Peralta, F. Ogliaro, M. Bearpark, J. J. Heyd, E. Brothers, 
 K. N. Kudin, V. N. Staroverov, T. Keith, R. Kobayashi, J. Normand, 
 K. Raghavachari, A. Rendell, J. C. Burant, S. S. Iyengar, J. Tomasi, 
 M. Cossi, N. Rega, J. M. Millam, M. Klene, J. E. Knox, J. B. Cross, 
 V. Bakken, C. Adamo, J. Jaramillo, R. Gomperts, R. E. Stratmann, 
 O. Yazyev, A. J. Austin, R. Cammi, C. Pomelli, J. W. Ochterski, 
 R. L. Martin, K. Morokuma, V. G. Zakrzewski, G. A. Voth, 
 P. Salvador, J. J. Dannenberg, S. Dapprich, A. D. Daniels, 
 O. Farkas, J. B. Foresman, J. V. Ortiz, J. Cioslowski, 
 and D. J. Fox, Gaussian, Inc., Wallingford CT, 2013.
 
 ******************************************
 Gaussian 09:  ES64L-G09RevE.01 30-Nov-2015
                 6-Dec-2021 
 ******************************************
 %nprocs=14
 Will use up to   14 processors via shared memory.
 %mem=128GB
 %chk=XantPhos_3_SPE.chk
 ----------------------------------------------------------------------
 # PBE1PBE gen pseudo=read int=(grid=ultrafine) empiricaldispersion=GD3
 BJ nmr=giao
 ----------------------------------------------------------------------
 1/38=1/1;
 2/12=2,17=6,18=5,40=1/2;
 3/5=7,11=2,16=1,17=8,25=1,30=1,74=-13,75=-5,124=41/1,2,8,3;
 4//1;
 5/5=2,38=5/2;
 8/6=1,10=90,11=11/1;
 10/13=100,45=16/2;
 6/7=2,8=2,9=2,10=2,28=1/1;
 99/9=1/99;
 ----------------
 XantPhos_3 title
 ----------------
 Symbolic Z-matrix:
 Charge =  0 Multiplicity = 1
 P                    -1.61395   1.79158  -3.51259 
 C                    -1.97545   2.59969  -1.89062 
 C                    -3.23971   3.11071  -1.53435 
 C                    -3.5079    3.43609  -0.19778 
 C                    -2.54513   3.22447   0.80454 
 C                    -1.26796   2.74169   0.48024 
 C                    -1.01542   2.49341  -0.87823 
 O                     0.22288   2.02524  -1.26476 
 C                    -0.12873   2.42995   1.46379 
 C                    -0.64176   2.26646   2.90214 
 C                     0.90101   3.59482   1.41595 
 C                    -2.278     0.09105  -3.27939 
 C                    -2.12663  -0.80195  -4.36275 
 C                    -2.6745   -2.08694  -4.2947 
 C                    -3.34179  -2.50575  -3.13347 
 C                    -3.46192  -1.63473  -2.04253 
 C                    -2.94086  -0.33399  -2.11432 
 C                    -2.88508   2.61241  -4.55943 
 C                    -2.79789   4.00995  -4.73515 
 C                    -4.84928   3.97823  -6.03663 
 C                    -3.78109   4.68619  -5.46413 
 C                    -4.93491   2.59086  -5.86895 
 C                    -3.95886   1.90662  -5.12876 
 H                    -4.01494   3.21714  -2.29822 
 H                    -2.80189   3.43401   1.84716 
 H                    -4.49302   3.82691   0.07468 
 H                    -1.37608   1.4475    2.98404 
 H                    -1.11545   3.19851   3.25176 
 H                     1.28815   3.74354   0.39536 
 H                     0.42518   4.5338    1.74692 
 H                    -1.9568    4.56213  -4.30798 
 H                    -5.61246   4.5098   -6.61432 
 H                    -5.76644   2.03191  -6.31043 
 H                    -4.04153   0.825    -4.99289 
 H                    -1.57449  -0.4809   -5.25357 
 H                    -2.55029  -2.77245  -5.13807 
 H                    -3.75593  -3.51757  -3.07535 
 H                    -3.97263  -1.96234  -1.13086 
 H                    -3.05829   0.34993  -1.26856 
 P                     1.47933  -0.10109  -2.93319 
 C                     1.32226  -0.05753  -1.08211 
 C                     1.87675  -1.05508  -0.25199 
 C                     1.74323  -0.97028   1.13829 
 C                     1.07844   0.11651   1.73418 
 C                     0.5601    1.15341   0.94726 
 C                     0.7162    1.02984  -0.4461 
 C                     0.91351  -1.78748  -3.39382 
 C                     0.23493  -2.64341  -2.50794 
 C                    -0.17097  -3.91549  -2.93487 
 C                     0.0902   -4.33871  -4.24459 
 C                     0.74607  -3.47667  -5.13795 
 C                     1.15283  -2.20347  -4.72256 
 C                     3.31968  -0.19669  -2.98315 
 C                     4.04687   1.00147  -2.84883 
 C                     6.11933  -0.26383  -2.78557 
 C                     5.44041   0.96464  -2.74665 
 C                     5.39739  -1.45524  -2.92697 
 C                     3.99767  -1.42654  -3.0221 
 H                     2.40781  -1.89952  -0.70118 
 H                     0.98176   0.15416   2.82321 
 H                     2.16474  -1.75791   1.77028 
 H                     0.19429   2.05789   3.58968 
 H                     1.75242   3.3744    2.08224 
 H                     3.51869   1.96048  -2.85885 
 H                     3.43846  -2.35931  -3.14371 
 H                     0.00832  -2.31658  -1.48978 
 H                    -0.7026   -4.57261  -2.23882 
 H                    -0.22446  -5.33488  -4.57311 
 H                     0.94294  -3.79526  -6.16687 
 H                     1.65314  -1.51916  -5.41839 
 H                     5.92201  -2.41553  -2.97052 
 H                     7.21157  -0.28907  -2.71504 
 H                     6.00105   1.90043  -2.65458 
 H                    -3.70343   5.76975  -5.59842 
 Pd                    0.54874   1.52645  -4.38108 
 Cl                    2.43827   1.00578  -5.73949 
 Cl                   -0.0066    3.17457  -5.97504 
 
 Stoichiometry    C39H32Cl2OP2Pd
 Framework group  C1[X(C39H32Cl2OP2Pd)]
 Deg. of freedom   225
 Full point group                 C1      NOp   1
 Largest Abelian subgroup         C1      NOp   1
 Largest concise Abelian subgroup C1      NOp   1
                         Standard orientation:                         
 ---------------------------------------------------------------------
 Center     Atomic      Atomic             Coordinates (Angstroms)
 Number     Number       Type             X           Y           Z
 ---------------------------------------------------------------------
      1         15           0       -1.893564   -0.345186   -0.170686
      2          6           0       -2.336648    1.445706   -0.274921
      3          6           0       -3.610566    1.957523    0.043849
      4          6           0       -3.782080    3.336955    0.222677
      5          6           0       -2.691690    4.219080    0.126488
      6          6           0       -1.415485    3.745606   -0.214877
      7          6           0       -1.298999    2.367168   -0.454041
      8          8           0       -0.073365    1.838900   -0.801507
      9          6           0       -0.128003    4.577901   -0.324753
     10          6           0       -0.250438    5.922653    0.406958
     11          6           0        0.168008    4.837991   -1.829521
     12          6           0       -1.582361   -0.585643    1.627228
     13          6           0       -1.188815   -1.879250    2.034304
     14          6           0       -1.010680   -2.163768    3.391994
     15          6           0       -1.183965   -1.153446    4.350311
     16          6           0       -1.538739    0.140607    3.946810
     17          6           0       -1.748157    0.426516    2.589249
     18          6           0       -3.555539   -1.092354   -0.425614
     19          6           0       -4.200261   -0.869900   -1.661106
     20          6           0       -6.148903   -2.084783   -0.867430
     21          6           0       -5.493014   -1.358738   -1.873742
     22          6           0       -5.509185   -2.312115    0.357035
     23          6           0       -4.216749   -1.814621    0.582556
     24          1           0       -4.449902    1.270700    0.183850
     25          1           0       -2.844215    5.283676    0.327143
     26          1           0       -4.771925    3.728752    0.475940
     27          1           0       -0.459519    5.786323    1.481361
     28          1           0       -1.058347    6.529979   -0.033240
     29          1           0        0.258459    3.892532   -2.387651
     30          1           0       -0.648197    5.429419   -2.278599
     31          1           0       -3.685062   -0.322361   -2.454570
     32          1           0       -7.157589   -2.473718   -1.040691
     33          1           0       -6.015211   -2.875495    1.147814
     34          1           0       -3.730776   -1.986595    1.546628
     35          1           0       -1.021412   -2.655211    1.278424
     36          1           0       -0.703655   -3.168234    3.697632
     37          1           0       -1.028214   -1.373489    5.411442
     38          1           0       -1.664118    0.933854    4.691347
     39          1           0       -2.048225    1.432683    2.281941
     40         15           0        1.777665   -0.385782   -0.088735
     41          6           0        1.924299    1.405752    0.382389
     42          6           0        3.026232    1.910237    1.105523
     43          6           0        3.097353    3.270761    1.424603
     44          6           0        2.090015    4.161845    1.013039
     45          6           0        1.006573    3.709115    0.248658
     46          6           0        0.973390    2.334270   -0.050978
     47          6           0        2.052461   -1.290004    1.487057
     48          6           0        2.040537   -0.666517    2.747610
     49          6           0        2.252696   -1.425271    3.907136
     50          6           0        2.470941   -2.806285    3.818618
     51          6           0        2.459227   -3.434762    2.563134
     52          6           0        2.245365   -2.686790    1.399577
     53          6           0        3.388306   -0.498940   -0.978435
     54          6           0        3.439258   -0.048416   -2.311423
     55          6           0        5.844505   -0.386588   -2.333450
     56          6           0        4.664147    0.010238   -2.982197
     57          6           0        5.793546   -0.842122   -1.010366
     58          6           0        4.568552   -0.896160   -0.328066
     59          1           0        3.823585    1.230811    1.420940
     60          1           0        2.166692    5.219311    1.282538
     61          1           0        3.949647    3.646934    1.998647
     62          1           0        0.678825    6.506262    0.301833
     63          1           0        1.112775    5.397563   -1.937769
     64          1           0        2.512764    0.222566   -2.828101
     65          1           0        4.531998   -1.263395    0.702159
     66          1           0        1.851816    0.406958    2.830470
     67          1           0        2.237043   -0.931083    4.884096
     68          1           0        2.640766   -3.394959    4.726312
     69          1           0        2.616724   -4.515620    2.486479
     70          1           0        2.220881   -3.172466    0.416582
     71          1           0        6.708891   -1.164783   -0.503092
     72          1           0        6.801211   -0.348773   -2.864376
     73          1           0        4.695600    0.349948   -4.022444
     74          1           0       -5.983979   -1.184606   -2.836449
     75         46           0       -0.057567   -1.298064   -1.276567
     76         17           0        1.591403   -2.787127   -2.142743
     77         17           0       -1.606383   -2.352515   -2.709989
 ---------------------------------------------------------------------
 Rotational constants (GHZ):      0.0767213      0.0623808      0.0527301
 General basis read from cards:  (5D, 7F)
 ======================================================================================================
                                       Pseudopotential Parameters
 ======================================================================================================
  Center     Atomic      Valence      Angular      Power
  Number     Number     Electrons     Momentum     of R      Exponent        Coefficient   SO-Coeffient
 ======================================================================================================
    1         15
                                   No pseudopotential on this center.
    2          6
                                   No pseudopotential on this center.
    3          6
                                   No pseudopotential on this center.
    4          6
                                   No pseudopotential on this center.
    5          6
                                   No pseudopotential on this center.
    6          6
                                   No pseudopotential on this center.
    7          6
                                   No pseudopotential on this center.
    8          8
                                   No pseudopotential on this center.
    9          6
                                   No pseudopotential on this center.
   10          6
                                   No pseudopotential on this center.
   11          6
                                   No pseudopotential on this center.
   12          6
                                   No pseudopotential on this center.
   13          6
                                   No pseudopotential on this center.
   14          6
                                   No pseudopotential on this center.
   15          6
                                   No pseudopotential on this center.
   16          6
                                   No pseudopotential on this center.
   17          6
                                   No pseudopotential on this center.
   18          6
                                   No pseudopotential on this center.
   19          6
                                   No pseudopotential on this center.
   20          6
                                   No pseudopotential on this center.
   21          6
                                   No pseudopotential on this center.
   22          6
                                   No pseudopotential on this center.
   23          6
                                   No pseudopotential on this center.
   24          1
                                   No pseudopotential on this center.
   25          1
                                   No pseudopotential on this center.
   26          1
                                   No pseudopotential on this center.
   27          1
                                   No pseudopotential on this center.
   28          1
                                   No pseudopotential on this center.
   29          1
                                   No pseudopotential on this center.
   30          1
                                   No pseudopotential on this center.
   31          1
                                   No pseudopotential on this center.
   32          1
                                   No pseudopotential on this center.
   33          1
                                   No pseudopotential on this center.
   34          1
                                   No pseudopotential on this center.
   35          1
                                   No pseudopotential on this center.
   36          1
                                   No pseudopotential on this center.
   37          1
                                   No pseudopotential on this center.
   38          1
                                   No pseudopotential on this center.
   39          1
                                   No pseudopotential on this center.
   40         15
                                   No pseudopotential on this center.
   41          6
                                   No pseudopotential on this center.
   42          6
                                   No pseudopotential on this center.
   43          6
                                   No pseudopotential on this center.
   44          6
                                   No pseudopotential on this center.
   45          6
                                   No pseudopotential on this center.
   46          6
                                   No pseudopotential on this center.
   47          6
                                   No pseudopotential on this center.
   48          6
                                   No pseudopotential on this center.
   49          6
                                   No pseudopotential on this center.
   50          6
                                   No pseudopotential on this center.
   51          6
                                   No pseudopotential on this center.
   52          6
                                   No pseudopotential on this center.
   53          6
                                   No pseudopotential on this center.
   54          6
                                   No pseudopotential on this center.
   55          6
                                   No pseudopotential on this center.
   56          6
                                   No pseudopotential on this center.
   57          6
                                   No pseudopotential on this center.
   58          6
                                   No pseudopotential on this center.
   59          1
                                   No pseudopotential on this center.
   60          1
                                   No pseudopotential on this center.
   61          1
                                   No pseudopotential on this center.
   62          1
                                   No pseudopotential on this center.
   63          1
                                   No pseudopotential on this center.
   64          1
                                   No pseudopotential on this center.
   65          1
                                   No pseudopotential on this center.
   66          1
                                   No pseudopotential on this center.
   67          1
                                   No pseudopotential on this center.
   68          1
                                   No pseudopotential on this center.
   69          1
                                   No pseudopotential on this center.
   70          1
                                   No pseudopotential on this center.
   71          1
                                   No pseudopotential on this center.
   72          1
                                   No pseudopotential on this center.
   73          1
                                   No pseudopotential on this center.
   74          1
                                   No pseudopotential on this center.
   75         46           18
                                      G and up 
                                                     2        1.0000000        0.00000000    0.00000000
                                      S - G
                                                     2       12.4300000      240.22904000    0.00000000
                                                     2        6.1707590       35.17194300    0.00000000
                                      P - G
                                                     2       11.0800000      170.41727600    0.00000000
                                                     2        5.8295540       28.47213300    0.00000000
                                      D - G
                                                     2        9.5100000       69.01384500    0.00000000
                                                     2        4.1397810       11.75086200    0.00000000
                                      F - G
                                                     2       13.2700000      -31.92955400    0.00000000
                                                     2        6.6300000       -5.39821700    0.00000000
   76         17
                                   No pseudopotential on this center.
   77         17
                                   No pseudopotential on this center.
 ======================================================================================================
 There are  1839 symmetry adapted cartesian basis functions of A   symmetry.
 There are  1616 symmetry adapted basis functions of A   symmetry.
  1616 basis functions,  2637 primitive gaussians,  1839 cartesian basis functions
   178 alpha electrons      178 beta electrons
       nuclear repulsion energy      7124.6899001190 Hartrees.
 NAtoms=   77 NActive=   77 NUniq=   77 SFac= 1.00D+00 NAtFMM=   60 NAOKFM=T Big=T
 Integral buffers will be    131072 words long.
 Raffenetti 2 integral format.
 Two-electron integral symmetry is turned on.
 Nuclear repulsion after empirical dispersion term =     7124.5436589992 Hartrees.
 One-electron integrals computed using PRISM.
   1 Symmetry operations used in ECPInt.
 ECPInt:  NShTT=  201295 NPrTT=  630012 LenC2=  160249 LenP2D=  330444.
 LDataN:  DoStor=T MaxTD1= 7 Len=  274
 NBasis=  1616 RedAO= T EigKep=  3.73D-06  NBF=  1616
 NBsUse=  1616 1.00D-06 EigRej= -1.00D+00 NBFU=  1616
 Defaulting to unpruned grid for atomic number  46.
 ExpMin= 1.60D-02 ExpMax= 6.95D+04 ExpMxC= 2.37D+03 IAcc=3 IRadAn=         5 AccDes= 0.00D+00
 Harris functional with IExCor= 1009 and IRadAn=       5 diagonalized for initial guess.
 HarFok:  IExCor= 1009 AccDes= 0.00D+00 IRadAn=         5 IDoV= 1 UseB2=F ITyADJ=14
 ICtDFT=  3500011 ScaDFX=  1.000000  1.000000  1.000000  1.000000
 Defaulting to unpruned grid for atomic number  46.
 Defaulting to unpruned grid for atomic number  46.
 Defaulting to unpruned grid for atomic number  46.
 Defaulting to unpruned grid for atomic number  46.
 Defaulting to unpruned grid for atomic number  46.
 Defaulting to unpruned grid for atomic number  46.
 Defaulting to unpruned grid for atomic number  46.
 Defaulting to unpruned grid for atomic number  46.
 Defaulting to unpruned grid for atomic number  46.
 Defaulting to unpruned grid for atomic number  46.
 Defaulting to unpruned grid for atomic number  46.
 Defaulting to unpruned grid for atomic number  46.
 Defaulting to unpruned grid for atomic number  46.
 Defaulting to unpruned grid for atomic number  46.
 FoFCou: FMM=F IPFlag=           0 FMFlag=      100000 FMFlg1=        2001
         NFxFlg=           0 DoJE=T BraDBF=F KetDBF=T FulRan=T
         wScrn=  0.000000 ICntrl=     500 IOpCl=  0 I1Cent=   200000004 NGrid=           0
         NMat0=    1 NMatS0=      1 NMatT0=    0 NMatD0=    1 NMtDS0=    0 NMtDT0=    0
 Petite list used in FoFCou.
 Requested convergence on RMS density matrix=1.00D-08 within 128 cycles.
 Requested convergence on MAX density matrix=1.00D-06.
 Requested convergence on             energy=1.00D-06.
 No special actions if energy rises.
 Defaulting to unpruned grid for atomic number  46.
 Defaulting to unpruned grid for atomic number  46.
 Defaulting to unpruned grid for atomic number  46.
 Defaulting to unpruned grid for atomic number  46.
 Defaulting to unpruned grid for atomic number  46.
 Defaulting to unpruned grid for atomic number  46.
 Defaulting to unpruned grid for atomic number  46.
 Defaulting to unpruned grid for atomic number  46.
 Defaulting to unpruned grid for atomic number  46.
 Defaulting to unpruned grid for atomic number  46.
 Defaulting to unpruned grid for atomic number  46.
 Defaulting to unpruned grid for atomic number  46.
 Defaulting to unpruned grid for atomic number  46.
 Defaulting to unpruned grid for atomic number  46.
 EnCoef did     6 forward-backward iterations
 EnCoef did   100 forward-backward iterations
 EnCoef did     4 forward-backward iterations
 EnCoef did     6 forward-backward iterations
 EnCoef did     3 forward-backward iterations
 Restarting incremental Fock formation.
 SCF Done:  E(RPBE1PBE) =  -3310.06429351     A.U. after   25 cycles
            NFock= 25  Conv=0.79D-08     -V/T= 2.0287
 DoSCS=F DFT=T ScalE2(SS,OS)=  1.000000  1.000000
 Range of M.O.s used for correlation:     1  1616
 NBasis=  1616 NAE=   178 NBE=   178 NFC=     0 NFV=     0
 NROrb=   1616 NOA=   178 NOB=   178 NVA=  1438 NVB=  1438

 **** Warning!!: The largest alpha MO coefficient is  0.42910838D+02

          Differentiating once with respect to magnetic field using GIAOs.
          Electric field/nuclear overlap derivatives assumed to be zero.
 Defaulting to unpruned grid for atomic number  46.
 FoFCou: FMM=F IPFlag=           0 FMFlag=      100000 FMFlg1=        2001
         NFxFlg=           0 DoJE=F BraDBF=F KetDBF=T FulRan=T
         wScrn=  0.000000 ICntrl=    6100 IOpCl=  0 I1Cent=           7 NGrid=          77
         NMat0=    1 NMatS0=      1 NMatT0=    0 NMatD0=    1 NMtDS0=    0 NMtDT0=    0
 Symmetry not used in FoFCou.
   1 Symmetry operations used in ECPInt.
 ECPInt:  NShTT=  201295 NPrTT=  630012 LenC2=  201296 LenP2D=  630012.
 LDataN:  DoStor=T MaxTD1= 8 Len=  415
 FoFJK:  IHMeth= 1 ICntrl=    6127 DoSepK=F KAlg= 0 I1Cent=   0 FoldK=F
 IRaf=         1 NMat=   1 IRICut=       1 DoRegI=T DoRafI=F ISym2E= 0.
 Defaulting to unpruned grid for atomic number  46.
 Defaulting to unpruned grid for atomic number  46.
 Defaulting to unpruned grid for atomic number  46.
 Defaulting to unpruned grid for atomic number  46.
 Defaulting to unpruned grid for atomic number  46.
 Defaulting to unpruned grid for atomic number  46.
 Defaulting to unpruned grid for atomic number  46.
 Defaulting to unpruned grid for atomic number  46.
 Defaulting to unpruned grid for atomic number  46.
 Defaulting to unpruned grid for atomic number  46.
 Defaulting to unpruned grid for atomic number  46.
 Defaulting to unpruned grid for atomic number  46.
 Defaulting to unpruned grid for atomic number  46.
 Defaulting to unpruned grid for atomic number  46.
          There are     3 degrees of freedom in the 1st order CPHF.  IDoFFX=0 NUNeed=     3.
      3 vectors produced by pass  0 Test12= 8.53D-12 3.33D-08 XBig12= 1.74D+02 1.87D+00.
 AX will form     3 AO Fock derivatives at one time.
      3 vectors produced by pass  1 Test12= 8.53D-12 3.33D-08 XBig12= 9.33D-01 1.79D-01.
      3 vectors produced by pass  2 Test12= 8.53D-12 3.33D-08 XBig12= 1.34D-02 4.42D-02.
      3 vectors produced by pass  3 Test12= 8.53D-12 3.33D-08 XBig12= 3.68D-04 6.99D-03.
      3 vectors produced by pass  4 Test12= 8.53D-12 3.33D-08 XBig12= 1.91D-06 3.72D-04.
      3 vectors produced by pass  5 Test12= 8.53D-12 3.33D-08 XBig12= 2.34D-08 5.86D-05.
      3 vectors produced by pass  6 Test12= 8.53D-12 3.33D-08 XBig12= 3.61D-10 6.31D-06.
      3 vectors produced by pass  7 Test12= 8.53D-12 3.33D-08 XBig12= 2.23D-12 4.38D-07.
 InvSVY:  IOpt=1 It=  1 EMax= 3.55D-15
 Solved reduced A of dimension    24 with     3 vectors.
 Calculating GIAO nuclear magnetic shielding tensors.
 SCF GIAO Magnetic shielding tensor (ppm):
      1  P    Isotropic =   259.3166   Anisotropy =    70.9587
   XX=   267.0567   YX=   -17.5296   ZX=   -22.7321
   XY=    10.3837   YY=   253.3761   ZY=    35.2607
   XZ=   -45.6827   YZ=    22.8615   ZZ=   257.5170
   Eigenvalues:   215.7063   255.6212   306.6224
      2  C    Isotropic =    54.9694   Anisotropy =   152.1072
   XX=    32.5961   YX=    12.1691   ZX=    26.1118
   XY=    13.1741   YY=   -15.2984   ZY=    -1.2568
   XZ=    39.5338   YZ=     0.9239   ZZ=   147.6106
   Eigenvalues:   -18.8845    27.4185   156.3743
      3  C    Isotropic =    43.6601   Anisotropy =   190.5792
   XX=   -25.6992   YX=   -37.9943   ZX=    41.6732
   XY=   -41.3439   YY=    -5.1012   ZY=    -2.2755
   XZ=    41.4901   YZ=     9.7664   ZZ=   161.7808
   Eigenvalues:   -62.0602    22.3277   170.7129
      4  C    Isotropic =    56.1827   Anisotropy =   176.2708
   XX=   -27.7365   YX=    25.4353   ZX=    46.0526
   XY=    26.4586   YY=    38.1990   ZY=   -22.2974
   XZ=    56.8827   YZ=   -27.0273   ZZ=   158.0856
   Eigenvalues:   -52.0545    46.9060   173.6965
      5  C    Isotropic =    52.6809   Anisotropy =   181.3611
   XX=    39.5840   YX=     2.3413   ZX=    28.7820
   XY=     8.7795   YY=   -41.0272   ZY=   -35.0262
   XZ=    41.8883   YZ=   -31.9642   ZZ=   159.4857
   Eigenvalues:   -47.9906    32.4450   173.5883
      6  C    Isotropic =    42.5872   Anisotropy =   168.5708
   XX=   -13.1034   YX=   -24.1893   ZX=    28.4503
   XY=   -18.7072   YY=    -7.4646   ZY=   -29.8928
   XZ=    24.1240   YZ=    -3.5728   ZZ=   148.3295
   Eigenvalues:   -32.3921     5.1860   154.9677
      7  C    Isotropic =    18.7121   Anisotropy =   131.7697
   XX=   -56.3069   YX=    30.7457   ZX=    40.1644
   XY=    29.9947   YY=    12.8664   ZY=   -17.2531
   XZ=    25.7834   YZ=    -5.4200   ZZ=    99.5769
   Eigenvalues:   -74.7184    24.2962   106.5586
      8  O    Isotropic =   150.8346   Anisotropy =   215.8308
   XX=    91.1199   YX=     8.9149   ZX=   -30.7891
   XY=    15.2737   YY=    89.8184   ZY=   -44.4685
   XZ=   -72.7780   YZ=   -39.6891   ZZ=   271.5654
   Eigenvalues:    77.1106    80.6713   294.7218
      9  C    Isotropic =   143.0066   Anisotropy =     9.0899
   XX=   142.3053   YX=    -1.0652   ZX=    -1.3803
   XY=    -0.2829   YY=   137.8811   ZY=    -4.4768
   XZ=    -1.0164   YZ=     5.1975   ZZ=   148.8334
   Eigenvalues:   137.7776   142.1756   149.0665
     10  C    Isotropic =   162.6116   Anisotropy =    30.2906
   XX=   148.0347   YX=    -1.2767   ZX=    -4.7748
   XY=    -3.1743   YY=   168.8603   ZY=    15.4597
   XZ=    -3.7654   YZ=     9.0166   ZZ=   170.9398
   Eigenvalues:   147.2645   157.7649   182.8053
     11  C    Isotropic =   154.5582   Anisotropy =    42.9549
   XX=   146.0117   YX=     2.8938   ZX=    -6.7316
   XY=     0.7681   YY=   139.8490   ZY=    -9.3467
   XZ=    -6.3540   YZ=   -17.0608   ZZ=   177.8141
   Eigenvalues:   135.7037   144.7762   183.1949
     12  C    Isotropic =    44.3521   Anisotropy =   184.7907
   XX=   156.7610   YX=    25.1148   ZX=   -26.1930
   XY=    39.3019   YY=    18.7610   ZY=     9.0752
   XZ=   -33.1286   YZ=     3.7011   ZZ=   -42.4656
   Eigenvalues:   -48.6996    14.2101   167.5459
     13  C    Isotropic =    41.4775   Anisotropy =   202.8841
   XX=   159.6345   YX=    60.5597   ZX=    -8.4077
   XY=    47.1050   YY=   -17.9699   ZY=   -55.4689
   XZ=    -3.6033   YZ=   -45.8499   ZZ=   -17.2323
   Eigenvalues:   -73.5917    21.2906   176.7336
     14  C    Isotropic =    51.3866   Anisotropy =   196.5968
   XX=   164.6170   YX=    61.8877   ZX=   -20.1167
   XY=    59.0567   YY=   -37.1440   ZY=    21.7914
   XZ=   -18.6166   YZ=    21.0054   ZZ=    26.6870
   Eigenvalues:   -61.4832    33.1919   182.4512
     15  C    Isotropic =    49.6908   Anisotropy =   194.7476
   XX=   168.8843   YX=    32.4982   ZX=   -27.1523
   XY=    36.5819   YY=    35.4948   ZY=    15.2702
   XZ=   -26.4715   YZ=    12.7894   ZZ=   -55.3069
   Eigenvalues:   -61.9487    31.4985   179.5225
     16  C    Isotropic =    53.1879   Anisotropy =   186.0446
   XX=   165.8396   YX=    43.4965   ZX=    -5.1175
   XY=    39.2367   YY=    -2.3358   ZY=   -51.2317
   XZ=    -5.3244   YZ=   -55.1994   ZZ=    -3.9400
   Eigenvalues:   -59.3370    41.6832   177.2176
     17  C    Isotropic =    50.6657   Anisotropy =   192.1276
   XX=   160.0913   YX=    61.2205   ZX=   -24.3486
   XY=    57.2479   YY=   -37.9718   ZY=    14.0715
   XZ=   -20.8477   YZ=    11.3320   ZZ=    29.8775
   Eigenvalues:   -58.1845    31.4308   178.7507
     18  C    Isotropic =    47.3150   Anisotropy =   174.6973
   XX=   -12.2518   YX=   -80.8572   ZX=   -23.7445
   XY=   -68.6037   YY=   114.7154   ZY=    33.1173
   XZ=   -29.7405   YZ=    35.4960   ZZ=    39.4814
   Eigenvalues:   -48.0643    26.2295   163.7798
     19  C    Isotropic =    38.3124   Anisotropy =   204.1203
   XX=    24.6120   YX=   -72.9464   ZX=     2.0156
   XY=   -70.0928   YY=   107.0222   ZY=    76.6771
   XZ=     8.4668   YZ=    87.6005   ZZ=   -16.6969
   Eigenvalues:   -74.0935    14.6382   174.3926
     20  C    Isotropic =    49.9429   Anisotropy =   189.5914
   XX=   -23.2973   YX=   -77.9399   ZX=   -31.0471
   XY=   -79.2802   YY=   123.3749   ZY=    39.6723
   XZ=   -33.9923   YZ=    38.0479   ZZ=    49.7510
   Eigenvalues:   -59.5551    33.0465   176.3371
     21  C    Isotropic =    53.8315   Anisotropy =   183.3189
   XX=    42.4303   YX=   -37.3319   ZX=   -55.4716
   XY=   -39.6480   YY=   135.6603   ZY=    53.0881
   XZ=   -55.8410   YZ=    55.7633   ZZ=   -16.5963
   Eigenvalues:   -54.5223    39.9726   176.0441
     22  C    Isotropic =    53.4985   Anisotropy =   181.7151
   XX=    41.1615   YX=   -67.2801   ZX=    16.3881
   XY=   -67.9396   YY=   110.4022   ZY=    79.8121
   XZ=    14.4726   YZ=    76.0598   ZZ=     8.9317
   Eigenvalues:   -57.7153    43.5689   174.6419
     23  C    Isotropic =    47.0691   Anisotropy =   194.4647
   XX=    37.9894   YX=   -42.3526   ZX=   -52.5246
   XY=   -41.8180   YY=   133.4528   ZY=    58.7768
   XZ=   -55.1087   YZ=    59.2161   ZZ=   -30.2348
   Eigenvalues:   -65.7390    30.2342   176.7122
     24  H    Isotropic =    24.6419   Anisotropy =    13.4988
   XX=    24.0078   YX=    -6.4626   ZX=     0.3832
   XY=    -1.5454   YY=    31.1693   ZY=     3.5837
   XZ=     0.2962   YZ=     3.6315   ZZ=    18.7485
   Eigenvalues:    17.4415    22.8431    33.6411
     25  H    Isotropic =    23.6018   Anisotropy =     8.7105
   XX=    29.0307   YX=     0.1981   ZX=    -1.1519
   XY=     1.8018   YY=    22.9764   ZY=     0.0228
   XZ=    -2.1580   YZ=     1.5908   ZZ=    18.7983
   Eigenvalues:    18.3386    23.0580    29.4088
     26  H    Isotropic =    24.0741   Anisotropy =     5.9877
   XX=    24.7400   YX=    -0.3933   ZX=    -0.2385
   XY=     0.7201   YY=    27.9818   ZY=     0.7825
   XZ=    -0.2178   YZ=     0.8525   ZZ=    19.5004
   Eigenvalues:    19.4112    24.7451    28.0659
     27  H    Isotropic =    29.9656   Anisotropy =     9.5056
   XX=    27.3721   YX=    -0.6327   ZX=    -1.2106
   XY=    -0.6896   YY=    28.7974   ZY=     3.1094
   XZ=    -1.0398   YZ=     5.2435   ZZ=    33.7274
   Eigenvalues:    26.4124    27.1817    36.3027
     28  H    Isotropic =    29.3191   Anisotropy =     9.4941
   XX=    29.9820   YX=    -3.2344   ZX=     0.8446
   XY=    -3.8370   YY=    33.4138   ZY=    -0.1908
   XZ=     1.0144   YZ=     0.2338   ZZ=    24.5616
   Eigenvalues:    24.3545    27.9544    35.6485
     29  H    Isotropic =    29.2407   Anisotropy =     6.2226
   XX=    22.5646   YX=    -0.1272   ZX=    -2.1558
   XY=    -0.7000   YY=    32.2930   ZY=    -0.1327
   XZ=    -1.9131   YZ=     0.7612   ZZ=    32.8645
   Eigenvalues:    22.1654    32.1676    33.3891
     30  H    Isotropic =    30.0999   Anisotropy =    10.0599
   XX=    27.7808   YX=    -2.1911   ZX=     1.9040
   XY=    -2.3562   YY=    30.3103   ZY=    -3.0306
   XZ=     2.7175   YZ=    -5.5481   ZZ=    32.2086
   Eigenvalues:    26.4174    27.0758    36.8065
     31  H    Isotropic =    22.9008   Anisotropy =    11.7213
   XX=    27.5577   YX=    -0.9350   ZX=     5.8252
   XY=    -1.6001   YY=    19.3606   ZY=     1.2662
   XZ=     4.7951   YZ=     2.9991   ZZ=    21.7841
   Eigenvalues:    16.4858    21.5016    30.7150
     32  H    Isotropic =    23.8151   Anisotropy =     3.4362
   XX=    24.4122   YX=     1.4525   ZX=     0.9951
   XY=     1.3177   YY=    21.7058   ZY=    -1.8287
   XZ=     0.3584   YZ=    -1.8555   ZZ=    25.3272
   Eigenvalues:    20.3502    24.9892    26.1059
     33  H    Isotropic =    24.1040   Anisotropy =     7.5218
   XX=    27.7047   YX=     2.6234   ZX=     2.6080
   XY=     2.3828   YY=    21.2481   ZY=    -0.3195
   XZ=     1.5242   YZ=    -0.8559   ZZ=    23.3594
   Eigenvalues:    19.9062    23.2873    29.1186
     34  H    Isotropic =    24.7574   Anisotropy =    15.5995
   XX=    32.4164   YX=     6.6526   ZX=     3.1482
   XY=     5.5343   YY=    21.6073   ZY=    -0.5915
   XZ=    -1.7834   YZ=    -2.7951   ZZ=    20.2484
   Eigenvalues:    17.6070    21.5080    35.1570
     35  H    Isotropic =    23.2338   Anisotropy =     9.4295
   XX=    24.4253   YX=    -0.8080   ZX=     2.9361
   XY=    -0.8032   YY=    20.9015   ZY=    -5.5210
   XZ=     0.1817   YZ=    -6.5782   ZZ=    24.3748
   Eigenvalues:    16.3331    23.8482    29.5202
     36  H    Isotropic =    24.7957   Anisotropy =     4.9246
   XX=    25.5690   YX=     1.9707   ZX=    -2.0106
   XY=     0.8823   YY=    22.0934   ZY=    -1.0178
   XZ=    -0.7534   YZ=    -0.9152   ZZ=    26.7246
   Eigenvalues:    21.5400    24.7683    28.0788
     37  H    Isotropic =    24.2350   Anisotropy =     3.1973
   XX=    22.5354   YX=    -1.7414   ZX=    -2.5466
   XY=    -1.1544   YY=    25.3082   ZY=     0.3412
   XZ=    -0.9378   YZ=    -0.4509   ZZ=    24.8615
   Eigenvalues:    21.1834    25.1551    26.3665
     38  H    Isotropic =    24.5484   Anisotropy =     7.0518
   XX=    21.4591   YX=    -1.9322   ZX=    -0.2583
   XY=    -1.1670   YY=    23.8642   ZY=    -1.6655
   XZ=    -0.1730   YZ=    -2.7467   ZZ=    28.3220
   Eigenvalues:    20.5053    23.8903    29.2496
     39  H    Isotropic =    25.9363   Anisotropy =    12.6044
   XX=    21.2647   YX=    -2.0909   ZX=     0.8217
   XY=     0.1244   YY=    22.3699   ZY=     0.8509
   XZ=    -0.1918   YZ=    -3.5411   ZZ=    34.1741
   Eigenvalues:    20.6764    22.7932    34.3392
     40  P    Isotropic =   259.2546   Anisotropy =   100.7017
   XX=   292.4648   YX=    -4.9627   ZX=    29.8539
   XY=   -13.4089   YY=   205.1604   ZY=    29.5871
   XZ=    46.4990   YZ=    30.6102   ZZ=   280.1387
   Eigenvalues:   189.6306   261.7443   326.3891
     41  C    Isotropic =    58.7440   Anisotropy =   159.3542
   XX=    64.4371   YX=     1.2588   ZX=   -57.3021
   XY=     9.2324   YY=   -10.7815   ZY=   -21.5896
   XZ=   -67.1863   YZ=   -24.0331   ZZ=   122.5765
   Eigenvalues:   -15.0628    26.3146   164.9802
     42  C    Isotropic =    43.1633   Anisotropy =   193.6176
   XX=     8.7431   YX=    47.2966   ZX=   -86.0699
   XY=    42.8867   YY=    -5.0042   ZY=   -10.0465
   XZ=   -76.5812   YZ=    -8.1905   ZZ=   125.7509
   Eigenvalues:   -58.7539    16.0021   172.2417
     43  C    Isotropic =    57.3066   Anisotropy =   175.5763
   XX=    18.9660   YX=   -10.8459   ZX=   -94.1061
   XY=   -13.2930   YY=    42.8354   ZY=   -34.3309
   XZ=   -95.8275   YZ=   -37.3317   ZZ=   110.1185
   Eigenvalues:   -50.2781    47.8405   174.3575
     44  C    Isotropic =    54.2432   Anisotropy =   179.3375
   XX=    74.6388   YX=     8.7934   ZX=   -59.5414
   XY=     7.3322   YY=   -37.0837   ZY=   -39.3501
   XZ=   -67.9315   YZ=   -30.5471   ZZ=   125.1745
   Eigenvalues:   -44.5491    33.4772   173.8016
     45  C    Isotropic =    43.5145   Anisotropy =   168.8742
   XX=    27.6408   YX=    26.9709   ZX=   -73.9425
   XY=    26.1857   YY=    -8.0339   ZY=   -21.9930
   XZ=   -71.6291   YZ=     2.2470   ZZ=   110.9368
   Eigenvalues:   -30.7486     5.1950   156.0973
     46  C    Isotropic =    21.2668   Anisotropy =   126.8523
   XX=    -7.2627   YX=   -18.7383   ZX=   -72.0527
   XY=   -18.9259   YY=    16.4618   ZY=   -26.3014
   XZ=   -78.1480   YZ=   -20.4056   ZZ=    54.6013
   Eigenvalues:   -67.3893    25.3548   105.8350
     47  C    Isotropic =    45.8140   Anisotropy =   187.5544
   XX=   164.5123   YX=    40.1795   ZX=   -14.9841
   XY=    22.5249   YY=     5.3946   ZY=    34.5338
   XZ=   -13.9530   YZ=    24.5868   ZZ=   -32.4648
   Eigenvalues:   -52.2830    18.8748   170.8503
     48  C    Isotropic =    48.0691   Anisotropy =   199.9904
   XX=   173.3170   YX=    39.1854   ZX=   -16.5517
   XY=    40.0518   YY=   -56.5118   ZY=   -14.9106
   XZ=    -8.5864   YZ=   -14.9757   ZZ=    27.4021
   Eigenvalues:   -64.9034    27.7147   181.3960
     49  C    Isotropic =    51.2080   Anisotropy =   190.9855
   XX=   175.1203   YX=    19.2342   ZX=    -5.1207
   XY=    22.2467   YY=    19.7525   ZY=   -38.6734
   XZ=    -8.7763   YZ=   -40.7799   ZZ=   -41.2489
   Eigenvalues:   -60.8704    35.9627   178.5316
     50  C    Isotropic =    50.3998   Anisotropy =   191.5934
   XX=   172.2201   YX=    27.6379   ZX=   -19.6535
   XY=    29.5366   YY=     9.7131   ZY=    40.3950
   XZ=   -22.8741   YZ=    39.1181   ZZ=   -30.7337
   Eigenvalues:   -59.8658    32.9365   178.1288
     51  C    Isotropic =    50.9093   Anisotropy =   190.2647
   XX=   172.3338   YX=    30.0432   ZX=   -11.3419
   XY=    33.5597   YY=   -56.1333   ZY=   -11.6129
   XZ=   -10.6766   YZ=    -9.0347   ZZ=    36.5273
   Eigenvalues:   -61.2633    36.2388   177.7524
     52  C    Isotropic =    41.5871   Anisotropy =   209.2456
   XX=   176.9529   YX=    18.6342   ZX=   -16.0571
   XY=    23.2846   YY=    -4.3103   ZY=   -43.6799
   XZ=   -14.5418   YZ=   -34.5129   ZZ=   -47.8813
   Eigenvalues:   -70.8798    14.5569   181.0842
     53  C    Isotropic =    35.3585   Anisotropy =   192.3059
   XX=   -40.0647   YX=    27.8971   ZX=    26.4933
   XY=    12.2069   YY=   143.3181   ZY=    53.1380
   XZ=    31.3081   YZ=    48.1604   ZZ=     2.8220
   Eigenvalues:   -54.7583    -2.7286   163.5624
     54  C    Isotropic =    42.1806   Anisotropy =   194.2287
   XX=   -31.5999   YX=    39.5053   ZX=   -28.1685
   XY=    46.2179   YY=   149.4967   ZY=    44.4718
   XZ=   -31.2619   YZ=    59.3554   ZZ=     8.6451
   Eigenvalues:   -65.9520    20.8274   171.6664
     55  C    Isotropic =    51.1941   Anisotropy =   187.2543
   XX=   -34.0480   YX=    16.1062   ZX=    44.3364
   XY=    15.2840   YY=   157.9509   ZY=    45.0149
   XZ=    46.1061   YZ=    44.3476   ZZ=    29.6792
   Eigenvalues:   -57.7290    35.2809   176.0303
     56  C    Isotropic =    51.4977   Anisotropy =   186.0474
   XX=    41.4863   YX=    17.0313   ZX=     5.7079
   XY=    19.4441   YY=   148.9234   ZY=    69.6535
   XZ=     7.1931   YZ=    71.3296   ZZ=   -35.9165
   Eigenvalues:   -59.7320    38.6958   175.5293
     57  C    Isotropic =    53.4586   Anisotropy =   181.6914
   XX=   -25.1068   YX=    41.4924   ZX=   -32.1591
   XY=    42.1970   YY=   150.1172   ZY=    50.7327
   XZ=   -31.4650   YZ=    54.3879   ZZ=    35.3654
   Eigenvalues:   -56.5324    42.3220   174.5862
     58  C    Isotropic =    50.4591   Anisotropy =   186.3565
   XX=    38.5384   YX=    19.3829   ZX=     4.6454
   XY=    25.7108   YY=   145.2702   ZY=    69.6705
   XZ=     5.3339   YZ=    74.5131   ZZ=   -32.4312
   Eigenvalues:   -58.0845    34.7651   174.6968
     59  H    Isotropic =    24.2831   Anisotropy =    11.1955
   XX=    23.7496   YX=     5.5109   ZX=     1.1896
   XY=     2.5115   YY=    27.1992   ZY=     6.2726
   XZ=     1.5348   YZ=     2.2358   ZZ=    21.9004
   Eigenvalues:    19.3280    21.7744    31.7467
     60  H    Isotropic =    23.8685   Anisotropy =     8.7492
   XX=    26.8377   YX=    -0.4977   ZX=     4.1414
   XY=    -2.1891   YY=    23.3944   ZY=    -0.2381
   XZ=     5.3239   YZ=     1.2885   ZZ=    21.3733
   Eigenvalues:    18.3838    23.5203    29.7013
     61  H    Isotropic =    24.2734   Anisotropy =     5.7433
   XX=    23.9032   YX=     0.1863   ZX=     1.9225
   XY=    -1.0892   YY=    27.9267   ZY=     1.4753
   XZ=     1.9984   YZ=     0.7205   ZZ=    20.9904
   Eigenvalues:    19.8314    24.8866    28.1023
     62  H    Isotropic =    29.3513   Anisotropy =     9.4054
   XX=    30.1066   YX=     3.2415   ZX=     1.1985
   XY=     3.2336   YY=    33.3036   ZY=     1.2960
   XZ=     1.3769   YZ=     1.4138   ZZ=    24.6436
   Eigenvalues:    24.3017    28.1306    35.6215
     63  H    Isotropic =    30.2296   Anisotropy =     9.6183
   XX=    30.1654   YX=     4.0622   ZX=    -2.9761
   XY=     2.3733   YY=    30.4612   ZY=    -2.0346
   XZ=    -3.5029   YZ=    -4.2800   ZZ=    30.0623
   Eigenvalues:    26.8738    27.1733    36.6418
     64  H    Isotropic =    22.9933   Anisotropy =    11.8666
   XX=    23.1427   YX=     2.1300   ZX=    -7.3827
   XY=     2.2705   YY=    20.3702   ZY=    -1.5042
   XZ=    -4.5941   YZ=    -0.7920   ZZ=    25.4671
   Eigenvalues:    17.7758    20.2997    30.9044
     65  H    Isotropic =    24.4425   Anisotropy =    14.2909
   XX=    33.2189   YX=     0.0374   ZX=    -5.2836
   XY=    -0.7152   YY=    19.9891   ZY=    -1.5300
   XZ=    -1.1605   YZ=    -0.2474   ZZ=    20.1194
   Eigenvalues:    18.6871    20.6706    33.9698
     66  H    Isotropic =    25.2865   Anisotropy =     9.6656
   XX=    23.6708   YX=     4.4616   ZX=     0.2960
   XY=     1.5465   YY=    21.9536   ZY=    -1.6732
   XZ=     1.9226   YZ=    -5.9722   ZZ=    30.2349
   Eigenvalues:    18.4828    25.6463    31.7302
     67  H    Isotropic =    24.4497   Anisotropy =     5.7645
   XX=    23.2716   YX=    -1.0236   ZX=     2.6093
   XY=    -0.5212   YY=    24.9261   ZY=    -1.5812
   XZ=     1.8492   YZ=    -3.0199   ZZ=    25.1514
   Eigenvalues:    21.6140    23.4424    28.2927
     68  H    Isotropic =    23.7732   Anisotropy =     3.0272
   XX=    21.7329   YX=    -2.1633   ZX=     1.4664
   XY=    -1.1952   YY=    25.0190   ZY=     0.9001
   XZ=     0.8771   YZ=     0.5932   ZZ=    24.5676
   Eigenvalues:    20.5576    24.9706    25.7913
     69  H    Isotropic =    23.5787   Anisotropy =     6.1878
   XX=    20.9656   YX=    -2.1656   ZX=     0.9118
   XY=    -1.3251   YY=    23.1530   ZY=    -1.8990
   XZ=     1.1461   YZ=    -1.4715   ZZ=    26.6173
   Eigenvalues:    19.9983    23.0337    27.7039
     70  H    Isotropic =    21.6523   Anisotropy =    12.4748
   XX=    17.9486   YX=    -3.4349   ZX=     2.2920
   XY=    -1.7180   YY=    23.2458   ZY=    -5.8477
   XZ=     3.4738   YZ=    -4.5838   ZZ=    23.7623
   Eigenvalues:    16.6977    18.2902    29.9688
     71  H    Isotropic =    24.1101   Anisotropy =     6.9567
   XX=    26.8874   YX=    -0.2753   ZX=    -2.9779
   XY=    -0.0800   YY=    20.6793   ZY=    -1.5528
   XZ=    -2.3801   YZ=    -0.9793   ZZ=    24.7636
   Eigenvalues:    20.1679    23.4144    28.7479
     72  H    Isotropic =    23.9750   Anisotropy =     3.3601
   XX=    25.4002   YX=    -1.0049   ZX=    -0.0228
   XY=    -0.7748   YY=    21.1350   ZY=    -1.8465
   XZ=     0.2996   YZ=    -1.4809   ZZ=    25.3898
   Eigenvalues:    20.4332    25.2767    26.2150
     73  H    Isotropic =    23.8599   Anisotropy =     7.0592
   XX=    27.7739   YX=    -0.6570   ZX=    -2.2701
   XY=    -0.3873   YY=    20.5312   ZY=    -1.0158
   XZ=    -1.8046   YZ=    -0.4108   ZZ=    23.2746
   Eigenvalues:    20.2059    22.8077    28.5661
     74  H    Isotropic =    23.7175   Anisotropy =     6.5248
   XX=    27.0229   YX=     2.6598   ZX=     0.6142
   XY=     2.5226   YY=    21.5966   ZY=    -1.0754
   XZ=     0.3960   YZ=    -0.4855   ZZ=    22.5330
   Eigenvalues:    20.2005    22.8846    28.0673
     75  Pd   Isotropic =  -232.3842   Anisotropy =   306.5331
   XX=   -40.6919   YX=   -41.4640   ZX=    67.0769
   XY=   -43.3096   YY=  -299.9281   ZY=   255.7898
   XZ=    57.4580   YZ=   268.8021   ZZ=  -356.5325
   Eigenvalues:  -601.9804   -67.1433   -28.0288
     76  Cl   Isotropic =   850.0790   Anisotropy =   443.0883
   XX=   670.4295   YX=   -36.2226   ZX=  -173.2430
   XY=    80.8989   YY=   978.8526   ZY=  -171.0394
   XZ=  -134.6241   YZ=  -173.5125   ZZ=   900.9548
   Eigenvalues:   583.4141   821.3516  1145.4712
     77  Cl   Isotropic =   818.7295   Anisotropy =   409.0468
   XX=   689.1621   YX=   138.0854   ZX=    50.6293
   XY=   133.9560   YY=   729.5014   ZY=  -127.4361
   XZ=    -3.1865   YZ=  -146.1913   ZZ=  1037.5251
   Eigenvalues:   547.0304   817.7308  1091.4274
 End of Minotr F.D. properties file   721 does not exist.
 End of Minotr F.D. properties file   722 does not exist.
 End of Minotr F.D. properties file   788 does not exist.

 **********************************************************************

            Population analysis using the SCF density.

 **********************************************************************

 Orbital symmetries:
       Occupied  (A) (A) (A) (A) (A) (A) (A) (A) (A) (A) (A) (A)
                 (A) (A) (A) (A) (A) (A) (A) (A) (A) (A) (A) (A)
                 (A) (A) (A) (A) (A) (A) (A) (A) (A) (A) (A) (A)
                 (A) (A) (A) (A) (A) (A) (A) (A) (A) (A) (A) (A)
                 (A) (A) (A) (A) (A) (A) (A) (A) (A) (A) (A) (A)
                 (A) (A) (A) (A) (A) (A) (A) (A) (A) (A) (A) (A)
                 (A) (A) (A) (A) (A) (A) (A) (A) (A) (A) (A) (A)
                 (A) (A) (A) (A) (A) (A) (A) (A) (A) (A) (A) (A)
                 (A) (A) (A) (A) (A) (A) (A) (A) (A) (A) (A) (A)
                 (A) (A) (A) (A) (A) (A) (A) (A) (A) (A) (A) (A)
                 (A) (A) (A) (A) (A) (A) (A) (A) (A) (A) (A) (A)
                 (A) (A) (A) (A) (A) (A) (A) (A) (A) (A) (A) (A)
                 (A) (A) (A) (A) (A) (A) (A) (A) (A) (A) (A) (A)
                 (A) (A) (A) (A) (A) (A) (A) (A) (A) (A) (A) (A)
                 (A) (A) (A) (A) (A) (A) (A) (A) (A) (A)
       Virtual   (A) (A) (A) (A) (A) (A) (A) (A) (A) (A) (A) (A)
                 (A) (A) (A) (A) (A) (A) (A) (A) (A) (A) (A) (A)
                 (A) (A) (A) (A) (A) (A) (A) (A) (A) (A) (A) (A)
                 (A) (A) (A) (A) (A) (A) (A) (A) (A) (A) (A) (A)
                 (A) (A) (A) (A) (A) (A) (A) (A) (A) (A) (A) (A)
                 (A) (A) (A) (A) (A) (A) (A) (A) (A) (A) (A) (A)
                 (A) (A) (A) (A) (A) (A) (A) (A) (A) (A) (A) (A)
                 (A) (A) (A) (A) (A) (A) (A) (A) (A) (A) (A) (A)
                 (A) (A) (A) (A) (A) (A) (A) (A) (A) (A) (A) (A)
                 (A) (A) (A) (A) (A) (A) (A) (A) (A) (A) (A) (A)
                 (A) (A) (A) (A) (A) (A) (A) (A) (A) (A) (A) (A)
                 (A) (A) (A) (A) (A) (A) (A) (A) (A) (A) (A) (A)
                 (A) (A) (A) (A) (A) (A) (A) (A) (A) (A) (A) (A)
                 (A) (A) (A) (A) (A) (A) (A) (A) (A) (A) (A) (A)
                 (A) (A) (A) (A) (A) (A) (A) (A) (A) (A) (A) (A)
                 (A) (A) (A) (A) (A) (A) (A) (A) (A) (A) (A) (A)
                 (A) (A) (A) (A) (A) (A) (A) (A) (A) (A) (A) (A)
                 (A) (A) (A) (A) (A) (A) (A) (A) (A) (A) (A) (A)
                 (A) (A) (A) (A) (A) (A) (A) (A) (A) (A) (A) (A)
                 (A) (A) (A) (A) (A) (A) (A) (A) (A) (A) (A) (A)
                 (A) (A) (A) (A) (A) (A) (A) (A) (A) (A) (A) (A)
                 (A) (A) (A) (A) (A) (A) (A) (A) (A) (A) (A) (A)
                 (A) (A) (A) (A) (A) (A) (A) (A) (A) (A) (A) (A)
                 (A) (A) (A) (A) (A) (A) (A) (A) (A) (A) (A) (A)
                 (A) (A) (A) (A) (A) (A) (A) (A) (A) (A) (A) (A)
                 (A) (A) (A) (A) (A) (A) (A) (A) (A) (A) (A) (A)
                 (A) (A) (A) (A) (A) (A) (A) (A) (A) (A) (A) (A)
                 (A) (A) (A) (A) (A) (A) (A) (A) (A) (A) (A) (A)
                 (A) (A) (A) (A) (A) (A) (A) (A) (A) (A) (A) (A)
                 (A) (A) (A) (A) (A) (A) (A) (A) (A) (A) (A) (A)
                 (A) (A) (A) (A) (A) (A) (A) (A) (A) (A) (A) (A)
                 (A) (A) (A) (A) (A) (A) (A) (A) (A) (A) (A) (A)
                 (A) (A) (A) (A) (A) (A) (A) (A) (A) (A) (A) (A)
                 (A) (A) (A) (A) (A) (A) (A) (A) (A) (A) (A) (A)
                 (A) (A) (A) (A) (A) (A) (A) (A) (A) (A) (A) (A)
                 (A) (A) (A) (A) (A) (A) (A) (A) (A) (A) (A) (A)
                 (A) (A) (A) (A) (A) (A) (A) (A) (A) (A) (A) (A)
                 (A) (A) (A) (A) (A) (A) (A) (A) (A) (A) (A) (A)
                 (A) (A) (A) (A) (A) (A) (A) (A) (A) (A) (A) (A)
                 (A) (A) (A) (A) (A) (A) (A) (A) (A) (A) (A) (A)
                 (A) (A) (A) (A) (A) (A) (A) (A) (A) (A) (A) (A)
                 (A) (A) (A) (A) (A) (A) (A) (A) (A) (A) (A) (A)
                 (A) (A) (A) (A) (A) (A) (A) (A) (A) (A) (A) (A)
                 (A) (A) (A) (A) (A) (A) (A) (A) (A) (A) (A) (A)
                 (A) (A) (A) (A) (A) (A) (A) (A) (A) (A) (A) (A)
                 (A) (A) (A) (A) (A) (A) (A) (A) (A) (A) (A) (A)
                 (A) (A) (A) (A) (A) (A) (A) (A) (A) (A) (A) (A)
                 (A) (A) (A) (A) (A) (A) (A) (A) (A) (A) (A) (A)
                 (A) (A) (A) (A) (A) (A) (A) (A) (A) (A) (A) (A)
                 (A) (A) (A) (A) (A) (A) (A) (A) (A) (A) (A) (A)
                 (A) (A) (A) (A) (A) (A) (A) (A) (A) (A) (A) (A)
                 (A) (A) (A) (A) (A) (A) (A) (A) (A) (A) (A) (A)
                 (A) (A) (A) (A) (A) (A) (A) (A) (A) (A) (A) (A)
                 (A) (A) (A) (A) (A) (A) (A) (A) (A) (A) (A) (A)
                 (A) (A) (A) (A) (A) (A) (A) (A) (A) (A) (A) (A)
                 (A) (A) (A) (A) (A) (A) (A) (A) (A) (A) (A) (A)
                 (A) (A) (A) (A) (A) (A) (A) (A) (A) (A) (A) (A)
                 (A) (A) (A) (A) (A) (A) (A) (A) (A) (A) (A) (A)
                 (A) (A) (A) (A) (A) (A) (A) (A) (A) (A) (A) (A)
                 (A) (A) (A) (A) (A) (A) (A) (A) (A) (A) (A) (A)
                 (A) (A) (A) (A) (A) (A) (A) (A) (A) (A) (A) (A)
                 (A) (A) (A) (A) (A) (A) (A) (A) (A) (A) (A) (A)
                 (A) (A) (A) (A) (A) (A) (A) (A) (A) (A) (A) (A)
                 (A) (A) (A) (A) (A) (A) (A) (A) (A) (A) (A) (A)
                 (A) (A) (A) (A) (A) (A) (A) (A) (A) (A) (A) (A)
                 (A) (A) (A) (A) (A) (A) (A) (A) (A) (A) (A) (A)
                 (A) (A) (A) (A) (A) (A) (A) (A) (A) (A) (A) (A)
                 (A) (A) (A) (A) (A) (A) (A) (A) (A) (A) (A) (A)
                 (A) (A) (A) (A) (A) (A) (A) (A) (A) (A) (A) (A)
                 (A) (A) (A) (A) (A) (A) (A) (A) (A) (A) (A) (A)
                 (A) (A) (A) (A) (A) (A) (A) (A) (A) (A) (A) (A)
                 (A) (A) (A) (A) (A) (A) (A) (A) (A) (A) (A) (A)
                 (A) (A) (A) (A) (A) (A) (A) (A) (A) (A) (A) (A)
                 (A) (A) (A) (A) (A) (A) (A) (A) (A) (A) (A) (A)
                 (A) (A) (A) (A) (A) (A) (A) (A) (A) (A) (A) (A)
                 (A) (A) (A) (A) (A) (A) (A) (A) (A) (A) (A) (A)
                 (A) (A) (A) (A) (A) (A) (A) (A) (A) (A) (A) (A)
                 (A) (A) (A) (A) (A) (A) (A) (A) (A) (A) (A) (A)
                 (A) (A) (A) (A) (A) (A) (A) (A) (A) (A) (A) (A)
                 (A) (A) (A) (A) (A) (A) (A) (A) (A) (A) (A) (A)
                 (A) (A) (A) (A) (A) (A) (A) (A) (A) (A) (A) (A)
                 (A) (A) (A) (A) (A) (A) (A) (A) (A) (A) (A) (A)
                 (A) (A) (A) (A) (A) (A) (A) (A) (A) (A) (A) (A)
                 (A) (A) (A) (A) (A) (A) (A) (A) (A) (A) (A) (A)
                 (A) (A) (A) (A) (A) (A) (A) (A) (A) (A) (A) (A)
                 (A) (A) (A) (A) (A) (A) (A) (A) (A) (A) (A) (A)
                 (A) (A) (A) (A) (A) (A) (A) (A) (A) (A) (A) (A)
                 (A) (A) (A) (A) (A) (A) (A) (A) (A) (A) (A) (A)
                 (A) (A) (A) (A) (A) (A) (A) (A) (A) (A) (A) (A)
                 (A) (A) (A) (A) (A) (A) (A) (A) (A) (A) (A) (A)
                 (A) (A) (A) (A) (A) (A) (A) (A) (A) (A) (A) (A)
                 (A) (A) (A) (A) (A) (A) (A) (A) (A) (A) (A) (A)
                 (A) (A) (A) (A) (A) (A) (A) (A) (A) (A) (A) (A)
                 (A) (A) (A) (A) (A) (A) (A) (A) (A) (A) (A) (A)
                 (A) (A) (A) (A) (A) (A) (A) (A) (A) (A) (A) (A)
                 (A) (A) (A) (A) (A) (A) (A) (A) (A) (A) (A) (A)
                 (A) (A) (A) (A) (A) (A) (A) (A) (A) (A) (A) (A)
                 (A) (A) (A) (A) (A) (A) (A) (A) (A) (A) (A) (A)
                 (A) (A) (A) (A) (A) (A) (A) (A) (A) (A) (A) (A)
                 (A) (A) (A) (A) (A) (A) (A) (A) (A) (A) (A) (A)
                 (A) (A) (A) (A) (A) (A) (A) (A) (A) (A) (A) (A)
                 (A) (A) (A) (A) (A) (A) (A) (A) (A) (A) (A) (A)
                 (A) (A) (A) (A) (A) (A) (A) (A) (A) (A) (A) (A)
                 (A) (A) (A) (A) (A) (A) (A) (A) (A) (A) (A) (A)
                 (A) (A) (A) (A) (A) (A) (A) (A) (A) (A) (A) (A)
                 (A) (A) (A) (A) (A) (A) (A) (A) (A) (A) (A) (A)
                 (A) (A) (A) (A) (A) (A) (A) (A) (A) (A) (A) (A)
                 (A) (A) (A) (A) (A) (A) (A) (A) (A) (A) (A) (A)
                 (A) (A) (A) (A) (A) (A) (A) (A) (A) (A) (A) (A)
                 (A) (A) (A) (A) (A) (A) (A) (A) (A) (A) (A) (A)
                 (A) (A) (A) (A) (A) (A) (A) (A) (A) (A) (A) (A)
                 (A) (A) (A) (A) (A) (A) (A) (A) (A) (A) (A) (A)
                 (A) (A) (A) (A) (A) (A) (A) (A) (A) (A) (A) (A)
                 (A) (A) (A) (A) (A) (A) (A) (A) (A) (A) (A) (A)
                 (A) (A) (A) (A) (A) (A) (A) (A) (A) (A) (A) (A)
                 (A) (A) (A) (A) (A) (A) (A) (A) (A) (A) (A) (A)
                 (A) (A) (A) (A) (A) (A) (A) (A) (A) (A) (A) (A)
                 (A) (A) (A) (A) (A) (A) (A) (A) (A) (A) (A) (A)
                 (A) (A) (A) (A) (A) (A) (A) (A) (A) (A) (A) (A)
                 (A) (A) (A) (A) (A) (A) (A) (A) (A) (A)
 The electronic state is 1-A.
 Alpha  occ. eigenvalues -- -101.61246-101.61131 -77.26468 -77.26269 -19.27147
 Alpha  occ. eigenvalues --  -10.31416 -10.31367 -10.28292 -10.26526 -10.26468
 Alpha  occ. eigenvalues --  -10.26384 -10.26375 -10.25954 -10.25940 -10.25731
 Alpha  occ. eigenvalues --  -10.25723 -10.25719 -10.25644 -10.25173 -10.25064
 Alpha  occ. eigenvalues --  -10.25043 -10.24984 -10.24817 -10.24805 -10.24783
 Alpha  occ. eigenvalues --  -10.24717 -10.24684 -10.24542 -10.24475 -10.24395
 Alpha  occ. eigenvalues --  -10.24199 -10.24094 -10.23968 -10.23893 -10.23710
 Alpha  occ. eigenvalues --  -10.23628 -10.23579 -10.23440 -10.23375 -10.23371
 Alpha  occ. eigenvalues --  -10.23312 -10.23274 -10.23254 -10.23081  -9.43756
 Alpha  occ. eigenvalues --   -9.43634  -7.16970  -7.16873  -7.16481  -7.16412
 Alpha  occ. eigenvalues --   -7.16346  -7.16276  -6.65632  -6.65436  -4.79256
 Alpha  occ. eigenvalues --   -4.79205  -4.79071  -4.78988  -4.78936  -4.78743
 Alpha  occ. eigenvalues --   -3.51223  -2.19065  -2.18784  -2.15425  -1.14151
 Alpha  occ. eigenvalues --   -0.91271  -0.91096  -0.89723  -0.89144  -0.88316
 Alpha  occ. eigenvalues --   -0.88029  -0.86347  -0.81795  -0.80877  -0.80048
 Alpha  occ. eigenvalues --   -0.78638  -0.78294  -0.78034  -0.77724  -0.77245
 Alpha  occ. eigenvalues --   -0.77033  -0.76995  -0.76767  -0.76488  -0.74087
 Alpha  occ. eigenvalues --   -0.73131  -0.72944  -0.69654  -0.69086  -0.67315
 Alpha  occ. eigenvalues --   -0.67227  -0.64065  -0.63686  -0.63207  -0.62867
 Alpha  occ. eigenvalues --   -0.62483  -0.62247  -0.62151  -0.61802  -0.59956
 Alpha  occ. eigenvalues --   -0.59092  -0.58083  -0.57745  -0.54412  -0.53954
 Alpha  occ. eigenvalues --   -0.53618  -0.52764  -0.52374  -0.51344  -0.50761
 Alpha  occ. eigenvalues --   -0.49782  -0.49338  -0.48387  -0.48051  -0.47987
 Alpha  occ. eigenvalues --   -0.47778  -0.47692  -0.47216  -0.47012  -0.46670
 Alpha  occ. eigenvalues --   -0.46604  -0.46399  -0.45019  -0.44695  -0.44640
 Alpha  occ. eigenvalues --   -0.44398  -0.43888  -0.43659  -0.43526  -0.43401
 Alpha  occ. eigenvalues --   -0.42986  -0.41834  -0.41796  -0.41532  -0.41222
 Alpha  occ. eigenvalues --   -0.41124  -0.40693  -0.40160  -0.39922  -0.39242
 Alpha  occ. eigenvalues --   -0.38854  -0.38398  -0.38217  -0.38001  -0.37417
 Alpha  occ. eigenvalues --   -0.37362  -0.36776  -0.36608  -0.36482  -0.36406
 Alpha  occ. eigenvalues --   -0.35919  -0.35745  -0.35438  -0.35235  -0.34843
 Alpha  occ. eigenvalues --   -0.34457  -0.32880  -0.31348  -0.30714  -0.30466
 Alpha  occ. eigenvalues --   -0.29854  -0.29462  -0.28835  -0.28404  -0.28007
 Alpha  occ. eigenvalues --   -0.27900  -0.27323  -0.27150  -0.26988  -0.26756
 Alpha  occ. eigenvalues --   -0.26330  -0.25803  -0.25688  -0.25079  -0.24325
 Alpha  occ. eigenvalues --   -0.23711  -0.23088  -0.22508
 Alpha virt. eigenvalues --   -0.07906  -0.05711  -0.04502  -0.03717  -0.03646
 Alpha virt. eigenvalues --   -0.03485  -0.02823  -0.02336  -0.01937  -0.01917
 Alpha virt. eigenvalues --   -0.01206  -0.00868  -0.00490   0.01187   0.01369
 Alpha virt. eigenvalues --    0.03237   0.03567   0.04180   0.04461   0.04717
 Alpha virt. eigenvalues --    0.05313   0.05452   0.05923   0.06288   0.06838
 Alpha virt. eigenvalues --    0.07196   0.07417   0.07679   0.07802   0.08112
 Alpha virt. eigenvalues --    0.08279   0.08664   0.08987   0.09292   0.09742
 Alpha virt. eigenvalues --    0.09855   0.10060   0.10303   0.10653   0.10724
 Alpha virt. eigenvalues --    0.10912   0.10995   0.11186   0.11483   0.11852
 Alpha virt. eigenvalues --    0.12008   0.12350   0.12444   0.12772   0.12990
 Alpha virt. eigenvalues --    0.13194   0.13263   0.13392   0.13619   0.13932
 Alpha virt. eigenvalues --    0.14444   0.14640   0.14925   0.15114   0.15503
 Alpha virt. eigenvalues --    0.15700   0.16265   0.16668   0.16771   0.16936
 Alpha virt. eigenvalues --    0.17348   0.17550   0.18190   0.18413   0.18559
 Alpha virt. eigenvalues --    0.18946   0.19088   0.19491   0.19564   0.19738
 Alpha virt. eigenvalues --    0.19972   0.20319   0.20481   0.20947   0.21062
 Alpha virt. eigenvalues --    0.21382   0.21722   0.21855   0.21938   0.22083
 Alpha virt. eigenvalues --    0.22640   0.22760   0.22781   0.22964   0.23402
 Alpha virt. eigenvalues --    0.23489   0.23558   0.23848   0.23912   0.24252
 Alpha virt. eigenvalues --    0.24467   0.24635   0.24960   0.25019   0.25103
 Alpha virt. eigenvalues --    0.25396   0.25490   0.25662   0.25797   0.26089
 Alpha virt. eigenvalues --    0.26367   0.26596   0.26883   0.26929   0.27208
 Alpha virt. eigenvalues --    0.27609   0.27702   0.28027   0.28152   0.28426
 Alpha virt. eigenvalues --    0.28585   0.28770   0.29068   0.29266   0.29470
 Alpha virt. eigenvalues --    0.29599   0.30028   0.30191   0.30712   0.30751
 Alpha virt. eigenvalues --    0.31143   0.31249   0.31528   0.31811   0.32223
 Alpha virt. eigenvalues --    0.32481   0.32645   0.32969   0.33125   0.33327
 Alpha virt. eigenvalues --    0.33938   0.34101   0.34253   0.34371   0.34731
 Alpha virt. eigenvalues --    0.35105   0.35454   0.35587   0.35780   0.35991
 Alpha virt. eigenvalues --    0.36148   0.36314   0.36377   0.36782   0.37023
 Alpha virt. eigenvalues --    0.37381   0.37591   0.37709   0.37843   0.38148
 Alpha virt. eigenvalues --    0.38330   0.38440   0.38474   0.38674   0.38845
 Alpha virt. eigenvalues --    0.39145   0.39457   0.39795   0.40102   0.40282
 Alpha virt. eigenvalues --    0.40378   0.40594   0.40674   0.40774   0.40999
 Alpha virt. eigenvalues --    0.41308   0.41518   0.41603   0.41910   0.41945
 Alpha virt. eigenvalues --    0.42030   0.42212   0.42550   0.42681   0.42835
 Alpha virt. eigenvalues --    0.42917   0.43235   0.43317   0.43589   0.43696
 Alpha virt. eigenvalues --    0.43861   0.44194   0.44299   0.44391   0.44547
 Alpha virt. eigenvalues --    0.44665   0.44734   0.44981   0.45075   0.45265
 Alpha virt. eigenvalues --    0.45362   0.45483   0.45790   0.46008   0.46164
 Alpha virt. eigenvalues --    0.46267   0.46590   0.46896   0.46949   0.47161
 Alpha virt. eigenvalues --    0.47465   0.47653   0.47844   0.48043   0.48283
 Alpha virt. eigenvalues --    0.48493   0.48592   0.48863   0.48976   0.49556
 Alpha virt. eigenvalues --    0.49691   0.49847   0.50008   0.50050   0.50506
 Alpha virt. eigenvalues --    0.50639   0.50854   0.51041   0.51574   0.51885
 Alpha virt. eigenvalues --    0.52092   0.52140   0.52451   0.52716   0.52901
 Alpha virt. eigenvalues --    0.53211   0.53365   0.53663   0.54283   0.54423
 Alpha virt. eigenvalues --    0.54458   0.54783   0.55161   0.55309   0.55491
 Alpha virt. eigenvalues --    0.55751   0.56331   0.56551   0.57090   0.57357
 Alpha virt. eigenvalues --    0.58006   0.58156   0.58259   0.58564   0.58807
 Alpha virt. eigenvalues --    0.59624   0.59863   0.60455   0.60771   0.60795
 Alpha virt. eigenvalues --    0.61327   0.61522   0.62008   0.62054   0.62180
 Alpha virt. eigenvalues --    0.62359   0.62691   0.62827   0.63321   0.63607
 Alpha virt. eigenvalues --    0.63891   0.63975   0.64255   0.64893   0.65263
 Alpha virt. eigenvalues --    0.65683   0.65858   0.66067   0.66228   0.66343
 Alpha virt. eigenvalues --    0.66692   0.66755   0.67232   0.67470   0.67891
 Alpha virt. eigenvalues --    0.68329   0.68555   0.69022   0.69045   0.69216
 Alpha virt. eigenvalues --    0.69528   0.69601   0.69800   0.69970   0.70152
 Alpha virt. eigenvalues --    0.70888   0.70994   0.71381   0.71609   0.71749
 Alpha virt. eigenvalues --    0.71877   0.72492   0.72639   0.72787   0.72958
 Alpha virt. eigenvalues --    0.73225   0.73308   0.73502   0.73861   0.74082
 Alpha virt. eigenvalues --    0.74232   0.74504   0.74621   0.75250   0.75402
 Alpha virt. eigenvalues --    0.75816   0.76077   0.76113   0.76519   0.76832
 Alpha virt. eigenvalues --    0.76989   0.77418   0.77875   0.78105   0.78380
 Alpha virt. eigenvalues --    0.78452   0.78561   0.78741   0.79386   0.79693
 Alpha virt. eigenvalues --    0.79946   0.80254   0.80429   0.80867   0.80931
 Alpha virt. eigenvalues --    0.81086   0.81751   0.81803   0.82128   0.82243
 Alpha virt. eigenvalues --    0.82737   0.83200   0.83288   0.83450   0.83568
 Alpha virt. eigenvalues --    0.84381   0.84573   0.84885   0.85369   0.85437
 Alpha virt. eigenvalues --    0.85558   0.86414   0.86430   0.86867   0.87246
 Alpha virt. eigenvalues --    0.88021   0.88058   0.88294   0.88438   0.88818
 Alpha virt. eigenvalues --    0.89188   0.89606   0.89882   0.90170   0.90268
 Alpha virt. eigenvalues --    0.90661   0.91011   0.91694   0.91805   0.92316
 Alpha virt. eigenvalues --    0.92600   0.93001   0.93275   0.93350   0.93812
 Alpha virt. eigenvalues --    0.94320   0.94569   0.94794   0.94992   0.95182
 Alpha virt. eigenvalues --    0.95392   0.95660   0.96338   0.96874   0.97214
 Alpha virt. eigenvalues --    0.97820   0.98267   0.98374   0.98614   0.99006
 Alpha virt. eigenvalues --    0.99546   0.99759   1.00383   1.00567   1.01010
 Alpha virt. eigenvalues --    1.01320   1.01578   1.02448   1.02844   1.03029
 Alpha virt. eigenvalues --    1.03439   1.03680   1.04244   1.04433   1.05064
 Alpha virt. eigenvalues --    1.05394   1.05780   1.05912   1.06331   1.06951
 Alpha virt. eigenvalues --    1.07346   1.08112   1.08394   1.08745   1.09004
 Alpha virt. eigenvalues --    1.09103   1.09589   1.09792   1.10064   1.10256
 Alpha virt. eigenvalues --    1.10669   1.10944   1.11515   1.11809   1.12118
 Alpha virt. eigenvalues --    1.12529   1.12997   1.13452   1.13821   1.14214
 Alpha virt. eigenvalues --    1.14666   1.15007   1.15317   1.15993   1.16376
 Alpha virt. eigenvalues --    1.16643   1.16775   1.17502   1.17520   1.17717
 Alpha virt. eigenvalues --    1.18310   1.18541   1.18895   1.19705   1.19824
 Alpha virt. eigenvalues --    1.19982   1.20118   1.20644   1.21197   1.21721
 Alpha virt. eigenvalues --    1.21869   1.22202   1.22591   1.22881   1.23244
 Alpha virt. eigenvalues --    1.23548   1.23653   1.23951   1.24814   1.24947
 Alpha virt. eigenvalues --    1.25178   1.25466   1.25954   1.26050   1.26323
 Alpha virt. eigenvalues --    1.26653   1.26837   1.27136   1.27360   1.27750
 Alpha virt. eigenvalues --    1.27985   1.28307   1.28708   1.28946   1.29344
 Alpha virt. eigenvalues --    1.29664   1.29847   1.30106   1.30283   1.30704
 Alpha virt. eigenvalues --    1.31171   1.31513   1.31606   1.31848   1.32114
 Alpha virt. eigenvalues --    1.32528   1.33003   1.33329   1.33605   1.34141
 Alpha virt. eigenvalues --    1.34271   1.34445   1.35124   1.35383   1.35839
 Alpha virt. eigenvalues --    1.35879   1.36197   1.36554   1.37144   1.37753
 Alpha virt. eigenvalues --    1.38196   1.38508   1.39377   1.39715   1.40486
 Alpha virt. eigenvalues --    1.41180   1.41626   1.41916   1.42043   1.42601
 Alpha virt. eigenvalues --    1.43104   1.43729   1.44348   1.44665   1.44988
 Alpha virt. eigenvalues --    1.45156   1.45646   1.45791   1.46066   1.46424
 Alpha virt. eigenvalues --    1.46923   1.47399   1.47751   1.47942   1.48375
 Alpha virt. eigenvalues --    1.48907   1.49437   1.49537   1.49854   1.50174
 Alpha virt. eigenvalues --    1.50545   1.50666   1.51412   1.51681   1.52023
 Alpha virt. eigenvalues --    1.52241   1.52834   1.53200   1.53539   1.53758
 Alpha virt. eigenvalues --    1.54277   1.54778   1.55002   1.55213   1.55761
 Alpha virt. eigenvalues --    1.56210   1.56357   1.56572   1.56901   1.57182
 Alpha virt. eigenvalues --    1.57773   1.57792   1.58137   1.58157   1.58802
 Alpha virt. eigenvalues --    1.58990   1.59402   1.59545   1.59991   1.60331
 Alpha virt. eigenvalues --    1.60773   1.61081   1.61671   1.62028   1.62176
 Alpha virt. eigenvalues --    1.62587   1.62753   1.63321   1.63536   1.64243
 Alpha virt. eigenvalues --    1.64261   1.64461   1.64989   1.65246   1.65619
 Alpha virt. eigenvalues --    1.65941   1.66166   1.66481   1.66719   1.66910
 Alpha virt. eigenvalues --    1.67209   1.67241   1.67538   1.67914   1.68403
 Alpha virt. eigenvalues --    1.68880   1.69412   1.69863   1.70289   1.70437
 Alpha virt. eigenvalues --    1.70841   1.71028   1.71193   1.71521   1.71884
 Alpha virt. eigenvalues --    1.72037   1.72680   1.72918   1.73070   1.73328
 Alpha virt. eigenvalues --    1.73498   1.73727   1.74012   1.74377   1.74573
 Alpha virt. eigenvalues --    1.74836   1.75344   1.75345   1.75423   1.76409
 Alpha virt. eigenvalues --    1.76635   1.76924   1.77450   1.77595   1.77972
 Alpha virt. eigenvalues --    1.78719   1.79114   1.79398   1.80122   1.80402
 Alpha virt. eigenvalues --    1.80677   1.80978   1.81474   1.82124   1.82484
 Alpha virt. eigenvalues --    1.82590   1.83167   1.83640   1.83944   1.84196
 Alpha virt. eigenvalues --    1.84693   1.85184   1.85432   1.85999   1.86334
 Alpha virt. eigenvalues --    1.86932   1.87118   1.87935   1.88156   1.89175
 Alpha virt. eigenvalues --    1.89708   1.89984   1.90208   1.91230   1.91588
 Alpha virt. eigenvalues --    1.91898   1.92655   1.92924   1.93002   1.93298
 Alpha virt. eigenvalues --    1.93563   1.94314   1.94802   1.95025   1.95332
 Alpha virt. eigenvalues --    1.95908   1.96126   1.97157   1.97459   1.97920
 Alpha virt. eigenvalues --    1.98090   1.98462   1.99193   1.99464   1.99842
 Alpha virt. eigenvalues --    2.00286   2.00484   2.00687   2.01759   2.01939
 Alpha virt. eigenvalues --    2.02189   2.02577   2.03370   2.03594   2.04041
 Alpha virt. eigenvalues --    2.04433   2.04725   2.04815   2.05136   2.05589
 Alpha virt. eigenvalues --    2.05976   2.06947   2.07021   2.07476   2.08058
 Alpha virt. eigenvalues --    2.08373   2.08563   2.08728   2.08993   2.09572
 Alpha virt. eigenvalues --    2.09661   2.09927   2.10278   2.10867   2.11187
 Alpha virt. eigenvalues --    2.11392   2.11867   2.12026   2.12542   2.12891
 Alpha virt. eigenvalues --    2.13155   2.13219   2.13410   2.14193   2.14502
 Alpha virt. eigenvalues --    2.14799   2.15055   2.15176   2.15687   2.16174
 Alpha virt. eigenvalues --    2.16368   2.16686   2.16720   2.17169   2.17396
 Alpha virt. eigenvalues --    2.17892   2.18235   2.18614   2.18727   2.19215
 Alpha virt. eigenvalues --    2.19522   2.19827   2.20294   2.20492   2.20649
 Alpha virt. eigenvalues --    2.21287   2.21696   2.21952   2.22146   2.22433
 Alpha virt. eigenvalues --    2.23035   2.23317   2.23550   2.23772   2.24200
 Alpha virt. eigenvalues --    2.24251   2.24485   2.25185   2.25404   2.25827
 Alpha virt. eigenvalues --    2.26266   2.26843   2.27274   2.27449   2.28281
 Alpha virt. eigenvalues --    2.28533   2.28712   2.29402   2.30071   2.30279
 Alpha virt. eigenvalues --    2.30743   2.31430   2.32078   2.32527   2.32903
 Alpha virt. eigenvalues --    2.33190   2.33477   2.33859   2.34993   2.36301
 Alpha virt. eigenvalues --    2.36672   2.37128   2.37395   2.38036   2.38541
 Alpha virt. eigenvalues --    2.38668   2.39271   2.40084   2.41018   2.41263
 Alpha virt. eigenvalues --    2.41625   2.41887   2.42183   2.42504   2.42883
 Alpha virt. eigenvalues --    2.43476   2.43949   2.44071   2.44523   2.44759
 Alpha virt. eigenvalues --    2.44999   2.45474   2.46167   2.46358   2.46825
 Alpha virt. eigenvalues --    2.47104   2.47645   2.47968   2.48260   2.48687
 Alpha virt. eigenvalues --    2.49495   2.49643   2.50318   2.50516   2.50698
 Alpha virt. eigenvalues --    2.51151   2.51628   2.51921   2.52590   2.53103
 Alpha virt. eigenvalues --    2.53319   2.53906   2.54506   2.54692   2.55090
 Alpha virt. eigenvalues --    2.55692   2.55982   2.56457   2.56883   2.57440
 Alpha virt. eigenvalues --    2.57752   2.57793   2.58196   2.58549   2.59236
 Alpha virt. eigenvalues --    2.59603   2.59810   2.60089   2.60581   2.60787
 Alpha virt. eigenvalues --    2.61034   2.61450   2.62051   2.62310   2.62543
 Alpha virt. eigenvalues --    2.62899   2.63224   2.63472   2.63632   2.63953
 Alpha virt. eigenvalues --    2.64084   2.64452   2.64717   2.64876   2.65365
 Alpha virt. eigenvalues --    2.65564   2.65623   2.65872   2.66075   2.66272
 Alpha virt. eigenvalues --    2.66929   2.67065   2.67394   2.67667   2.67804
 Alpha virt. eigenvalues --    2.68043   2.68179   2.68665   2.68725   2.69005
 Alpha virt. eigenvalues --    2.69095   2.69802   2.70209   2.70573   2.70759
 Alpha virt. eigenvalues --    2.71089   2.71168   2.71758   2.71891   2.72230
 Alpha virt. eigenvalues --    2.72398   2.72899   2.73038   2.73320   2.73803
 Alpha virt. eigenvalues --    2.73917   2.74357   2.74756   2.75327   2.75418
 Alpha virt. eigenvalues --    2.75691   2.75984   2.76455   2.76751   2.77041
 Alpha virt. eigenvalues --    2.77182   2.77632   2.77767   2.78165   2.78359
 Alpha virt. eigenvalues --    2.78815   2.79028   2.79306   2.79600   2.79733
 Alpha virt. eigenvalues --    2.80303   2.80481   2.80889   2.81276   2.81352
 Alpha virt. eigenvalues --    2.81409   2.81645   2.82164   2.82577   2.83082
 Alpha virt. eigenvalues --    2.83415   2.83796   2.83968   2.84265   2.84563
 Alpha virt. eigenvalues --    2.84703   2.84793   2.85397   2.85903   2.86208
 Alpha virt. eigenvalues --    2.86257   2.86730   2.86766   2.87218   2.87604
 Alpha virt. eigenvalues --    2.87870   2.88245   2.88390   2.88747   2.88934
 Alpha virt. eigenvalues --    2.89604   2.89981   2.90024   2.90193   2.90627
 Alpha virt. eigenvalues --    2.91057   2.91193   2.91246   2.92256   2.92358
 Alpha virt. eigenvalues --    2.92699   2.93404   2.93818   2.94161   2.94396
 Alpha virt. eigenvalues --    2.94706   2.95258   2.96005   2.96124   2.96730
 Alpha virt. eigenvalues --    2.97159   2.97440   2.98029   2.98315   2.98823
 Alpha virt. eigenvalues --    2.99057   2.99507   3.00038   3.00583   3.01019
 Alpha virt. eigenvalues --    3.01707   3.02707   3.03164   3.04308   3.04650
 Alpha virt. eigenvalues --    3.04960   3.05328   3.05808   3.06066   3.06742
 Alpha virt. eigenvalues --    3.07531   3.07931   3.08380   3.08552   3.09778
 Alpha virt. eigenvalues --    3.09916   3.10657   3.10866   3.10960   3.11430
 Alpha virt. eigenvalues --    3.11571   3.11988   3.12138   3.12663   3.12816
 Alpha virt. eigenvalues --    3.13191   3.13516   3.13984   3.14230   3.14262
 Alpha virt. eigenvalues --    3.14660   3.15004   3.15619   3.15928   3.16173
 Alpha virt. eigenvalues --    3.16424   3.16570   3.17122   3.17236   3.17494
 Alpha virt. eigenvalues --    3.17890   3.18044   3.18199   3.18479   3.19012
 Alpha virt. eigenvalues --    3.19318   3.19698   3.19793   3.20044   3.20179
 Alpha virt. eigenvalues --    3.20724   3.20902   3.21386   3.21970   3.22069
 Alpha virt. eigenvalues --    3.22386   3.22868   3.22982   3.23372   3.23465
 Alpha virt. eigenvalues --    3.23954   3.24274   3.24390   3.25363   3.25539
 Alpha virt. eigenvalues --    3.25854   3.26247   3.26562   3.26896   3.26950
 Alpha virt. eigenvalues --    3.27660   3.27955   3.28255   3.28582   3.29223
 Alpha virt. eigenvalues --    3.29596   3.29682   3.30027   3.30305   3.30459
 Alpha virt. eigenvalues --    3.30866   3.31080   3.31438   3.32383   3.32556
 Alpha virt. eigenvalues --    3.32642   3.33081   3.33227   3.33507   3.33583
 Alpha virt. eigenvalues --    3.33858   3.34212   3.34608   3.34683   3.35009
 Alpha virt. eigenvalues --    3.35273   3.35419   3.35634   3.36031   3.36209
 Alpha virt. eigenvalues --    3.36580   3.36797   3.37222   3.37335   3.37847
 Alpha virt. eigenvalues --    3.38160   3.38555   3.38612   3.39071   3.39326
 Alpha virt. eigenvalues --    3.39563   3.39649   3.39938   3.40314   3.40564
 Alpha virt. eigenvalues --    3.41051   3.41367   3.41712   3.41873   3.42306
 Alpha virt. eigenvalues --    3.42625   3.42763   3.42975   3.43290   3.43664
 Alpha virt. eigenvalues --    3.43771   3.43949   3.44582   3.45072   3.45220
 Alpha virt. eigenvalues --    3.45561   3.45846   3.46142   3.46504   3.46774
 Alpha virt. eigenvalues --    3.47360   3.47455   3.47521   3.47894   3.48026
 Alpha virt. eigenvalues --    3.48876   3.48965   3.49236   3.49486   3.49758
 Alpha virt. eigenvalues --    3.49934   3.50143   3.50379   3.50852   3.51135
 Alpha virt. eigenvalues --    3.51324   3.51815   3.52302   3.52589   3.52651
 Alpha virt. eigenvalues --    3.53096   3.53338   3.53564   3.53836   3.54108
 Alpha virt. eigenvalues --    3.54422   3.54462   3.54687   3.54951   3.55407
 Alpha virt. eigenvalues --    3.55461   3.55990   3.56271   3.56537   3.56635
[...]
                                                    193(g),1019(r),219(v)
                                                    1051(r),865(v),209(v),780(r)
                                                    471(v),1047(r),897(r),855(r)
                                                    653(r),185(g),346(r),1462(v)
                                                    1023(r),214(v),1560(r)
                                                    1448(g),871(v),1461(v)
                                                    1602(r),1548(r),1056(r)
                                                    1465(v),1334(r),1021(r)
                                                    186(g),1044(r),1230(r)
                                                    1587(r),468(v),628(v),870(v)
                                                    634(v),1438(g),1048(r)
                                                    1054(r),632(v),365(r),217(v)
                                                    1200(r),1209(r),364(r)
                                                    1557(v),1026(r),341(r)
                                                    1459(v),506(r),601(r),624(v)
                                                    1471(v),1210(r),246(r)
                                                    345(r),1073(r),758(r)
                                                    1503(v),1333(r),1203(r)
                                                    236(r),213(v),498(r),1412(r)
                                                    173(g),1229(r),366(r),894(r)
                                                    1543(v),1046(r),1228(r)
                                                    1456(g),1411(r),1186(r)
                                                    1554(r),1493(v),1335(r)
                                                    659(r),1020(r),1406(r)
                                                    190(g),1522(r),1181(r)
                                                    1072(r)
  1519. BD*(   1) C   2 - C   3          0.02134     0.50311   
  1520. BD*(   1) C   2 - C   7          0.03363     0.50206   
  1521. BD*(   2) C   2 - C   7          0.40314    -0.00124  1523(v),1528(v),1577(r)
                                                    1516(v),340(g),211(g),235(v)
                                                    1533(v)
  1522. BD*(   1) C   3 - C   4          0.01450     0.52337   
  1523. BD*(   2) C   3 - C   4          0.31296     0.01014  1528(v),1521(v),262(g)
                                                    1545(r),235(g)
  1524. BD*(   1) C   3 - H  24          0.01464     0.40178   
  1525. BD*(   1) C   4 - C   5          0.01314     0.51715   
  1526. BD*(   1) C   4 - H  26          0.01327     0.38738   
  1527. BD*(   1) C   5 - C   6          0.02075     0.51562   
  1528. BD*(   2) C   5 - C   6          0.34193     0.01235  1523(v),1521(v),1584(r)
                                                    288(g),1535(v),1536(v)
  1529. BD*(   1) C   5 - H  25          0.01461     0.38622   
  1530. BD*(   1) C   6 - C   7          0.03870     0.50010   
  1531. BD*(   1) C   6 - C   9          0.03783     0.34475   
  1532. BD*(   1) C   7 - O   8          0.03220     0.31445   
  1533. BD*(   1) O   8 - C  46          0.03262     0.31456   
  1534. BD*(   1) C   9 - C  10          0.01854     0.32041   
  1535. BD*(   1) C   9 - C  11          0.02744     0.29917   
  1536. BD*(   1) C   9 - C  45          0.03775     0.34273   
  1537. BD*(   1) C  10 - H  27          0.00666     0.35747   
  1538. BD*(   1) C  10 - H  28          0.00683     0.35639   
  1539. BD*(   1) C  10 - H  62          0.00685     0.35665   
  1540. BD*(   1) C  11 - H  29          0.00634     0.37193   
  1541. BD*(   1) C  11 - H  30          0.00705     0.36048   
  1542. BD*(   1) C  11 - H  63          0.00701     0.36079   
  1543. BD*(   1) C  12 - C  13          0.02400     0.50193   
  1544. BD*(   1) C  12 - C  17          0.02716     0.51606   
  1545. BD*(   2) C  12 - C  17          0.37063     0.00913  1552(v),1547(v),1517(v)
                                                    1523(r),600(g)
  1546. BD*(   1) C  13 - C  14          0.01679     0.53869   
  1547. BD*(   2) C  13 - C  14          0.30115     0.02064  1552(v),1545(v),1559(r)
                                                    1588(r),522(g),1598(r)
  1548. BD*(   1) C  13 - H  35          0.01473     0.41683   
  1549. BD*(   1) C  14 - C  15          0.01488     0.52577   
  1550. BD*(   1) C  14 - H  36          0.01373     0.39752   
  1551. BD*(   1) C  15 - C  16          0.01465     0.52592   
  1552. BD*(   2) C  15 - C  16          0.32030     0.01428  1545(v),1547(v),1593(r)
                                                    574(g),548(g)
  1553. BD*(   1) C  15 - H  37          0.01313     0.39465   
  1554. BD*(   1) C  16 - C  17          0.01554     0.52632   
  1555. BD*(   1) C  16 - H  38          0.01352     0.39089   
  1556. BD*(   1) C  17 - H  39          0.01585     0.39859   
  1557. BD*(   1) C  18 - C  19          0.02324     0.51671   
  1558. BD*(   1) C  18 - C  23          0.02542     0.52595   
  1559. BD*(   2) C  18 - C  23          0.36946     0.02121  1565(v),1561(v),1547(r)
                                                    1515(v),756(g)
  1560. BD*(   1) C  19 - C  21          0.01562     0.54776   
  1561. BD*(   2) C  19 - C  21          0.29552     0.03362  1565(v),1559(v),704(g)
  1562. BD*(   1) C  19 - H  31          0.01419     0.42209   
  1563. BD*(   1) C  20 - C  21          0.01459     0.53522   
  1564. BD*(   1) C  20 - C  22          0.01439     0.53827   
  1565. BD*(   2) C  20 - C  22          0.31970     0.02596  1559(v),1561(v),678(g)
                                                    730(g)
  1566. BD*(   1) C  20 - H  32          0.01292     0.40423   
  1567. BD*(   1) C  21 - H  74          0.01342     0.40399   
  1568. BD*(   1) C  22 - C  23          0.01521     0.53773   
  1569. BD*(   1) C  22 - H  33          0.01329     0.40203   
  1570. BD*(   1) C  23 - H  34          0.01581     0.41023   
  1571. BD*(   1) P  40 - C  41          0.07851     0.18809   
  1572. BD*(   1) P  40 - C  47          0.05931     0.21267   
  1573. BD*(   1) P  40 - C  53          0.06876     0.20551   
  1574. BD*(   1) P  40 -Pd  75          0.16743     0.56468  1518(g),1452(g),860(g)
                                                    1450(g),180(v),1442(g)
                                                    1449(g),1446(g),1453(g)
                                                    1443(g),1444(g),1436(g)
                                                    1447(g),1463(v),1437(g)
                                                    1491(v),1454(g),1391(r)
                                                    1440(g),1439(g),869(g)
                                                    1045(v),1445(g),208(r)
                                                    1464(v),815(r),1492(v)
                                                    1455(g),183(v),1202(v)
                                                    868(g),191(v),1615(g),862(g)
                                                    1441(g),888(v),188(v),626(r)
                                                    189(v),864(g),889(v),625(r)
                                                    469(r),890(v),863(g),866(g)
                                                    1448(g),339(r),1381(r)
                                                    898(v),1071(r),1019(r)
                                                    1386(r),497(r),340(r)
                                                    1049(v),872(g),1467(v)
                                                    865(g),221(r),780(r),1604(r)
                                                    1047(v),840(r),1201(v)
                                                    186(v),472(r),897(v),627(r)
                                                    871(g),1023(r),830(r)
                                                    1051(v),209(r),855(r)
                                                    1054(v),470(r),1056(v)
                                                    343(r),187(v),193(v),211(r)
                                                    1597(r),1334(r),1021(r)
                                                    210(r),1488(v),365(r),624(r)
                                                    1451(g),214(r),1048(v)
                                                    870(g),219(r),1026(r)
                                                    1493(v),1546(r),181(v)
                                                    653(r),1487(v),246(r),346(r)
                                                    1098(r),835(r),1503(v)
                                                    1044(v),364(r),1230(r)
                                                    1462(v),1494(v),1229(r)
                                                    634(r),506(r),861(g),1210(v)
                                                    1073(r),1544(r),628(r)
                                                    341(r),1601(v),1461(v)
                                                    468(r),185(v),1203(v)
                                                    1460(v),1412(r),1606(r)
                                                    1471(v),471(r),900(v),899(v)
                                                    1072(r),1181(r),1209(v)
                                                    601(r),217(r),758(r),894(v)
                                                    196(v),632(r),873(g),1576(v)
                                                    1456(g),366(r),1575(v)
                                                    345(r),1176(r),1028(r)
                                                    1335(r),1333(r),659(r)
                                                    1046(v),498(r),1186(r)
                                                    916(r),200(v),1466(v)
                                                    1205(v),213(r)
  1575. BD*(   1) C  41 - C  42          0.02172     0.49903   
  1576. BD*(   1) C  41 - C  46          0.03350     0.50593   
  1577. BD*(   2) C  41 - C  46          0.39189     0.00303  1579(v),1584(v),1521(r)
                                                    1603(r),1573(v),1020(g)
                                                    1572(v),891(g)
  1578. BD*(   1) C  42 - C  43          0.01468     0.52717   
  1579. BD*(   2) C  42 - C  43          0.30827     0.01227  1584(v),1577(v),1588(r)
                                                    942(g)
  1580. BD*(   1) C  42 - H  59          0.01489     0.39867   
  1581. BD*(   1) C  43 - C  44          0.01317     0.51833   
  1582. BD*(   1) C  43 - H  61          0.01329     0.38700   
  1583. BD*(   1) C  44 - C  45          0.02037     0.51997   
  1584. BD*(   2) C  44 - C  45          0.33602     0.01466  1579(v),1577(v),1528(r)
                                                    968(g),1535(v)
  1585. BD*(   1) C  44 - H  60          0.01462     0.38699   
  1586. BD*(   1) C  45 - C  46          0.03805     0.49623   
  1587. BD*(   1) C  47 - C  48          0.02610     0.51940   
  1588. BD*(   2) C  47 - C  48          0.37319     0.01356  1593(v),1598(v),1579(r)
                                                    1547(r),1071(g),1573(v)
                                                    1098(v)
  1589. BD*(   1) C  47 - C  52          0.02356     0.50882   
  1590. BD*(   1) C  48 - C  49          0.01594     0.53246   
  1591. BD*(   1) C  48 - H  66          0.01615     0.40903   
  1592. BD*(   1) C  49 - C  50          0.01487     0.52864   
  1593. BD*(   2) C  49 - C  50          0.32330     0.01685  1588(v),1598(v),1552(r)
                                                    1124(g),1098(g)
  1594. BD*(   1) C  49 - H  67          0.01365     0.39585   
  1595. BD*(   1) C  50 - C  51          0.01476     0.52596   
  1596. BD*(   1) C  50 - H  68          0.01325     0.39658   
  1597. BD*(   1) C  51 - C  52          0.01610     0.53881   
  1598. BD*(   2) C  51 - C  52          0.29442     0.02342  1593(v),1588(v),1150(g)
                                                    1547(r),1603(r)
  1599. BD*(   1) C  51 - H  69          0.01356     0.39994   
  1600. BD*(   1) C  52 - H  70          0.01926     0.42294   
  1601. BD*(   1) C  53 - C  54          0.02360     0.52470   
  1602. BD*(   1) C  53 - C  58          0.02664     0.52912   
  1603. BD*(   2) C  53 - C  58          0.36965     0.02548  1609(v),1605(v),1577(r)
                                                    1571(v),1332(g),1598(r)
                                                    1203(g)
  1604. BD*(   1) C  54 - C  56          0.01542     0.55108   
  1605. BD*(   2) C  54 - C  56          0.29583     0.03570  1609(v),1603(v),1280(g)
  1606. BD*(   1) C  54 - H  64          0.01453     0.41749   
  1607. BD*(   1) C  55 - C  56          0.01443     0.53693   
  1608. BD*(   1) C  55 - C  57          0.01434     0.54058   
  1609. BD*(   2) C  55 - C  57          0.32080     0.02859  1603(v),1605(v),1254(g)
                                                    1306(g)
  1610. BD*(   1) C  55 - H  72          0.01286     0.40636   
  1611. BD*(   1) C  56 - H  73          0.01317     0.40635   
  1612. BD*(   1) C  57 - C  58          0.01566     0.54042   
  1613. BD*(   1) C  57 - H  71          0.01337     0.40295   
  1614. BD*(   1) C  58 - H  65          0.01585     0.40690   
  1615. BD*(   1)Pd  75 -Cl  76          0.17679     0.18091  1616(g),1574(g),1571(v)
                                                    1450(g),1452(g),1444(g)
                                                    860(v),1448(g),1515(v)
                                                    1446(g),1573(v),180(v)
                                                    1463(g),1449(g),869(v)
                                                    1440(g),1045(r),862(v)
                                                    1461(g),1439(g),1443(g)
                                                    888(r),1447(g),208(r),183(v)
                                                    868(v),1491(v),191(v)
                                                    1455(g),188(v),1453(g)
                                                    1442(g),1456(g),189(v)
                                                    1454(g)
  1616. BD*(   1)Pd  75 -Cl  77          0.17225     0.17261  1615(g),1518(g),1444(g)
                                                    1452(g),1445(g),180(v)
                                                    1451(g),1446(g),1442(g)
                                                    1453(g),1517(v),1443(g)
                                                    860(v),1449(g),1454(g)
                                                    1450(g),191(v),208(r)
                                                    1447(g),181(v),1571(v)
                                                    1491(g),1448(g),183(v)
                                                    869(v),188(v),1515(v)
                                                    1463(v),1489(g),1202(r)
                                                    1460(v),863(v),469(r)
                                                    1045(r),1456(g)
       -------------------------------
              Total Lewis  374.78220  ( 97.5995%)
        Valence non-Lewis    8.56163  (  2.2296%)
        Rydberg non-Lewis    0.65617  (  0.1709%)
       -------------------------------
            Total unit  1  384.00000  (100.0000%)
           Charge unit  1    0.00000
 1\1\GINC-NC028\SP\RPBE1PBE\Gen\C39H32Cl2O1P2Pd1\MACKK4\06-Dec-2021\0\\
 # PBE1PBE gen pseudo=read int=(grid=ultrafine) empiricaldispersion=GD3
 BJ pop=nbo guess=read geom=check\\XantPhos_3 title\\0,1\P,0,-1.6139528
 776,1.791583568,-3.5125859433\C,0,-1.9754467492,2.5996872747,-1.890620
 2983\C,0,-3.2397139435,3.110705866,-1.5343520048\C,0,-3.5079026344,3.4
 360874732,-0.1977784217\C,0,-2.54513357,3.2244697988,0.8045401652\C,0,
 -1.2679645176,2.7416901409,0.4802425628\C,0,-1.0154165964,2.4934143572
 ,-0.878226027\O,0,0.2228811771,2.0252362747,-1.2647567123\C,0,-0.12873
 44101,2.4299480469,1.4637930528\C,0,-0.6417552575,2.2664626587,2.90213
 63169\C,0,0.901011913,3.594820803,1.4159459389\C,0,-2.2779968797,0.091
 0465175,-3.2793904898\C,0,-2.126627127,-0.8019457795,-4.3627463059\C,0
 ,-2.6744969947,-2.0869416622,-4.2946992745\C,0,-3.341793265,-2.5057482
 447,-3.1334650789\C,0,-3.4619208214,-1.6347277181,-2.0425283961\C,0,-2
 .9408617806,-0.3339917405,-2.114319293\C,0,-2.8850790199,2.6124134321,
 -4.5594325838\C,0,-2.7978927184,4.0099532925,-4.7351459318\C,0,-4.8492
 819343,3.9782252847,-6.03663141\C,0,-3.7810941341,4.6861853644,-5.4641
 261389\C,0,-4.9349053823,2.5908597869,-5.8689498664\C,0,-3.9588550351,
 1.9066159588,-5.1287560626\H,0,-4.0149436732,3.2171413803,-2.298224396
 6\H,0,-2.8018947905,3.4340097533,1.8471607666\H,0,-4.4930249264,3.8269
 09752,0.0746765839\H,0,-1.3760830642,1.4475018968,2.9840417312\H,0,-1.
 115447529,3.1985100407,3.2517630614\H,0,1.2881475242,3.7435433501,0.39
 53619686\H,0,0.4251835713,4.5338036199,1.7469247434\H,0,-1.9567957997,
 4.5621286135,-4.3079797101\H,0,-5.6124585953,4.5097982873,-6.614324661
 1\H,0,-5.7664429862,2.0319066717,-6.3104334127\H,0,-4.0415342653,0.825
 002968,-4.9928943021\H,0,-1.574492351,-0.4809018581,-5.2535725557\H,0,
 -2.5502948141,-2.7724514015,-5.138074431\H,0,-3.755927982,-3.517574387
 2,-3.0753488612\H,0,-3.972631678,-1.9623427836,-1.130860113\H,0,-3.058
 2897642,0.3499334396,-1.2685599288\P,0,1.4793262677,-0.1010877003,-2.9
 331858321\C,0,1.3222564858,-0.0575265734,-1.0821087947\C,0,1.876752849
 8,-1.0550814761,-0.2519876463\C,0,1.7432340519,-0.9702824204,1.1382913
 16\C,0,1.0784392638,0.1165056501,1.7341818988\C,0,0.5600999777,1.15340
 90354,0.9472603542\C,0,0.7162049477,1.029842045,-0.4460968409\C,0,0.91
 35142903,-1.7874818292,-3.3938186224\C,0,0.2349284194,-2.6434113248,-2
 .5079411263\C,0,-0.1709710689,-3.915493888,-2.9348739948\C,0,0.0902002
 385,-4.3387093674,-4.2445857441\C,0,0.7460681061,-3.4766745137,-5.1379
 454739\C,0,1.1528345304,-2.2034650905,-4.7225625138\C,0,3.3196791604,-
 0.1966859471,-2.9831476901\C,0,4.0468744982,1.0014676527,-2.8488343537
 \C,0,6.1193323481,-0.2638286152,-2.7855703886\C,0,5.4404066472,0.96463
 91149,-2.7466453769\C,0,5.3973850481,-1.4552397299,-2.9269678553\C,0,3
 .9976745244,-1.4265440778,-3.0220969535\H,0,2.4078117505,-1.8995221613
 ,-0.7011845047\H,0,0.981758132,0.154160091,2.8232088343\H,0,2.16474267
 4,-1.7579079385,1.7702832336\H,0,0.1942850448,2.0578893112,3.589678217
 8\H,0,1.7524169019,3.3743997561,2.0822398619\H,0,3.5186897142,1.960477
 0967,-2.8588493057\H,0,3.4384565913,-2.3593073505,-3.1437087958\H,0,0.
 008319063,-2.3165795242,-1.489776737\H,0,-0.7025955176,-4.572609501,-2
 .2388187301\H,0,-0.2244566985,-5.3348778917,-4.5731073885\H,0,0.942941
 6112,-3.7952600406,-6.1668672844\H,0,1.6531443873,-1.5191612455,-5.418
 3916084\H,0,5.922014491,-2.4155308659,-2.9705173064\H,0,7.2115714484,-
 0.2890711126,-2.7150402126\H,0,6.0010522155,1.900430332,-2.6545769797\
 H,0,-3.7034326889,5.7697480826,-5.5984187285\Pd,0,0.5487421124,1.52644
 991,-4.3810847715\Cl,0,2.4382655766,1.0057841234,-5.7394948554\Cl,0,-0
 .0066037131,3.1745678876,-5.9750415813\\Version=ES64L-G09RevE.01\State
 =1-A\HF=-3310.0642935\RMSD=8.251e-09\Dipole=-1.9298404,-1.8259063,4.05
 46097\Quadrupole=3.1311005,6.8013875,-9.932488,-6.2011009,11.2329613,1
 3.9376076\PG=C01 [X(C39H32Cl2O1P2Pd1)]\\@


 A HARD FALL SHOULD MEAN A HIGH BOUNCE 
 IF ONE IS MADE OF THE RIGHT MATERIAL.

                -- THE CHEMIST ANALYST, MARCH 1950
 Job cpu time:       0 days  2 hours 25 minutes 57.6 seconds.
 File lengths (MBytes):  RWF=   1339 Int=      0 D2E=      0 Chk=    192 Scr=      1
 Normal termination of Gaussian 09 at Mon Dec  6 04:45:09 2021.
