 Entering Gaussian System, Link 0=g09
 Input=XantPhos_1_SPE_NoPd.com
 Output=XantPhos_1_SPE_NoPd.log
 Initial command:
 /gstore/apps/gaussian/g09.e01-foss-2017a/g09/l1.exe "/local/22791532/Gau-21494.inp" -scrdir="/local/22791532/"
 Entering Link 1 = /gstore/apps/gaussian/g09.e01-foss-2017a/g09/l1.exe PID=     21495.
  
 Copyright (c) 1988,1990,1992,1993,1995,1998,2003,2009,2015,
            Gaussian, Inc.  All Rights Reserved.
  
 This is part of the Gaussian(R) 09 program.  It is based on
 the Gaussian(R) 03 system (copyright 2003, Gaussian, Inc.),
 the Gaussian(R) 98 system (copyright 1998, Gaussian, Inc.),
 the Gaussian(R) 94 system (copyright 1995, Gaussian, Inc.),
 the Gaussian 92(TM) system (copyright 1992, Gaussian, Inc.),
 the Gaussian 90(TM) system (copyright 1990, Gaussian, Inc.),
 the Gaussian 88(TM) system (copyright 1988, Gaussian, Inc.),
 the Gaussian 86(TM) system (copyright 1986, Carnegie Mellon
 University), and the Gaussian 82(TM) system (copyright 1983,
 Carnegie Mellon University). Gaussian is a federally registered
 trademark of Gaussian, Inc.
  
 This software contains proprietary and confidential information,
 including trade secrets, belonging to Gaussian, Inc.
  
 This software is provided under written license and may be
 used, copied, transmitted, or stored only in accord with that
 written license.
  
 The following legend is applicable only to US Government
 contracts under FAR:
  
                    RESTRICTED RIGHTS LEGEND
  
 Use, reproduction and disclosure by the US Government is
 subject to restrictions as set forth in subparagraphs (a)
 and (c) of the Commercial Computer Software - Restricted
 Rights clause in FAR 52.227-19.
  
 Gaussian, Inc.
 340 Quinnipiac St., Bldg. 40, Wallingford CT 06492
  
  
 ---------------------------------------------------------------
 Warning -- This program may not be used in any manner that
 competes with the business of Gaussian, Inc. or will provide
 assistance to any competitor of Gaussian, Inc.  The licensee
 of this program is prohibited from giving any competitor of
 Gaussian, Inc. access to this program.  By using this program,
 the user acknowledges that Gaussian, Inc. is engaged in the
 business of creating and licensing software in the field of
 computational chemistry and represents and warrants to the
 licensee that it is not a competitor of Gaussian, Inc. and that
 it will not use this program in any manner prohibited above.
 ---------------------------------------------------------------
  

 Cite this work as:
 Gaussian 09, Revision E.01,
 M. J. Frisch, G. W. Trucks, H. B. Schlegel, G. E. Scuseria, 
 M. A. Robb, J. R. Cheeseman, G. Scalmani, V. Barone, B. Mennucci, 
 G. A. Petersson, H. Nakatsuji, M. Caricato, X. Li, H. P. Hratchian, 
 A. F. Izmaylov, J. Bloino, G. Zheng, J. L. Sonnenberg, M. Hada, 
 M. Ehara, K. Toyota, R. Fukuda, J. Hasegawa, M. Ishida, T. Nakajima, 
 Y. Honda, O. Kitao, H. Nakai, T. Vreven, J. A. Montgomery, Jr., 
 J. E. Peralta, F. Ogliaro, M. Bearpark, J. J. Heyd, E. Brothers, 
 K. N. Kudin, V. N. Staroverov, T. Keith, R. Kobayashi, J. Normand, 
 K. Raghavachari, A. Rendell, J. C. Burant, S. S. Iyengar, J. Tomasi, 
 M. Cossi, N. Rega, J. M. Millam, M. Klene, J. E. Knox, J. B. Cross, 
 V. Bakken, C. Adamo, J. Jaramillo, R. Gomperts, R. E. Stratmann, 
 O. Yazyev, A. J. Austin, R. Cammi, C. Pomelli, J. W. Ochterski, 
 R. L. Martin, K. Morokuma, V. G. Zakrzewski, G. A. Voth, 
 P. Salvador, J. J. Dannenberg, S. Dapprich, A. D. Daniels, 
 O. Farkas, J. B. Foresman, J. V. Ortiz, J. Cioslowski, 
 and D. J. Fox, Gaussian, Inc., Wallingford CT, 2013.
 
 ******************************************
 Gaussian 09:  ES64L-G09RevE.01 30-Nov-2015
                 6-Dec-2021 
 ******************************************
 %nprocs=14
 Will use up to   14 processors via shared memory.
 %mem=128GB
 %chk=XantPhos_1_SPE_NoPd.chk
 ----------------------------------------------------------------------
 # PBE1PBE/def2TZVP int=(grid=ultrafine) empiricaldispersion=GD3BJ nmr=
 giao
 ----------------------------------------------------------------------
 1/38=1/1;
 2/12=2,17=6,18=5,40=1/2;
 3/5=44,7=101,11=2,16=1,25=1,30=1,74=-13,75=-5,124=41/1,2,8,3;
 4//1;
 5/5=2,38=5/2;
 8/6=1,10=90,11=11/1;
 10/13=100,45=16/2;
 6/7=2,8=2,9=2,10=2,28=1/1;
 99/9=1/99;
 ----------------
 XantPhos_1 title
 ----------------
 Symbolic Z-matrix:
 Charge =  0 Multiplicity = 1
 P                    -1.52636   1.84327  -3.4092 
 C                    -1.91268   2.81168  -1.88318 
 C                    -3.13694   3.41406  -1.54826 
 C                    -3.40049   3.75372  -0.21215 
 C                    -2.4859    3.448     0.8109 
 C                    -1.23634   2.88296   0.50541 
 C                    -0.97302   2.65922  -0.85195 
 O                     0.25331   2.14455  -1.22321 
 C                    -0.14179   2.45516   1.5002 
 C                    -0.71212   2.23603   2.90964 
 C                     0.94075   3.57132   1.54852 
 C                    -2.17082   0.17585  -2.905 
 C                    -2.3261   -0.22325  -1.56478 
 C                    -2.82908  -1.49639  -1.25757 
 C                    -3.18907  -2.38022  -2.2816 
 C                    -3.02834  -1.99274  -3.62062 
 C                    -2.51647  -0.72966  -3.9313 
 C                    -2.77709   2.27273  -4.68853 
 C                    -4.14423   2.03402  -4.42572 
 C                    -4.71528   2.80339  -6.65647 
 C                    -5.10796   2.31281  -5.40224 
 C                    -3.35689   3.01138  -6.93049 
 C                    -2.38696   2.75145  -5.95227 
 H                    -3.88952   3.58979  -2.32188 
 H                    -2.75728   3.65193   1.85093 
 H                    -4.35377   4.22608   0.04396 
 H                    -1.48332   1.44736   2.92016 
 H                    -1.15903   3.1674    3.29413 
 H                     1.36319   3.76105   0.54877 
 H                     0.49614   4.51078   1.91891 
 H                    -4.4528    1.60552  -3.46683 
 H                    -5.4691    3.01395  -7.42225 
 H                    -3.04326   3.38357  -7.911 
 H                    -1.32922   2.94079  -6.15186 
 H                    -2.08369   0.46228  -0.74878 
 H                    -2.95102  -1.78708  -0.20881 
 H                    -3.59043  -3.36987  -2.04009 
 H                    -3.29273  -2.68118  -4.42907 
 H                    -2.39899  -0.43602  -4.97876 
 P                     1.51112   0.05854  -2.96919 
 C                     1.34452   0.04682  -1.11807 
 C                     1.87966  -0.98179  -0.3143 
 C                     1.69404  -0.96042   1.07399 
 C                     1.00874   0.09866   1.69664 
 C                     0.51883   1.17527   0.94323 
 C                     0.71235   1.10682  -0.44872 
 C                     0.69995  -1.46108  -3.60493 
 C                     0.31659  -2.55768  -2.81564 
 C                    -0.17629  -3.71899  -3.42674 
 C                    -0.28254  -3.79553  -4.8223 
 C                     0.08345  -2.69534  -5.61275 
 C                     0.56466  -1.52786  -5.00832 
 C                     3.29972  -0.3674   -3.09099 
 C                     3.74427  -1.58173  -3.64168 
 C                     6.03944  -0.99118  -3.10081 
 C                     5.11381  -1.88885  -3.64565 
 C                     5.59639   0.22335  -2.55338 
 C                     4.23513   0.53991  -2.55253 
 H                     2.44624  -1.79329  -0.78201 
 H                     0.88337   0.0881    2.78349 
 H                     2.0997   -1.77256   1.68495 
 H                     0.08843   1.95433   3.61323 
 H                     1.76109   3.27552   2.22475 
 H                     3.02843  -2.2906   -4.06635 
 H                     3.89623   1.49947  -2.1522 
 H                     0.38336  -2.50187  -1.72586 
 H                    -0.48397  -4.56627  -2.80513 
 H                    -0.66067  -4.70841  -5.29403 
 H                    -0.00885  -2.74362  -6.70264 
 H                     0.84548  -0.65934  -5.61643 
 H                     6.31663   0.93601  -2.13916 
 H                     7.10736  -1.23274  -3.10654 
 H                     5.45225  -2.8361   -4.07822 
 H                    -6.16627   2.13351  -5.18599 
 
 Stoichiometry    C39H32OP2
 Framework group  C1[X(C39H32OP2)]
 Deg. of freedom   216
 Full point group                 C1      NOp   1
 Largest Abelian subgroup         C1      NOp   1
 Largest concise Abelian subgroup C1      NOp   1
                         Standard orientation:                         
 ---------------------------------------------------------------------
 Center     Atomic      Atomic             Coordinates (Angstroms)
 Number     Number       Type             X           Y           Z
 ---------------------------------------------------------------------
      1         15           0       -1.821290   -0.348245   -0.976133
      2          6           0       -2.266400    1.440964   -0.848054
      3          6           0       -3.538543    1.982686   -0.598961
      4          6           0       -3.651743    3.301403   -0.131856
      5          6           0       -2.511769    4.074441    0.150016
      6          6           0       -1.226813    3.577668   -0.125829
      7          6           0       -1.165895    2.297643   -0.691210
      8          8           0        0.064714    1.767684   -1.024897
      9          6           0        0.118122    4.272760    0.154621
     10          6           0       -0.022550    5.367972    1.222575
     11          6           0        0.628862    4.906317   -1.171200
     12          6           0       -1.606420   -0.756881    0.822950
     13          6           0       -1.317153    0.205160    1.808033
     14          6           0       -1.178010   -0.174852    3.151334
     15          6           0       -1.333263   -1.514387    3.526744
     16          6           0       -1.612634   -2.480903    2.548615
     17          6           0       -1.740394   -2.108539    1.207375
     18          6           0       -3.361506   -1.295740   -1.315920
     19          6           0       -4.427136   -1.236929   -0.390656
     20          6           0       -5.689702   -2.817850   -1.732630
     21          6           0       -5.590560   -1.984678   -0.608377
     22          6           0       -4.621352   -2.901887   -2.635486
     23          6           0       -3.459870   -2.143125   -2.434252
     24          1           0       -4.431880    1.368457   -0.741859
     25          1           0       -2.633799    5.068597    0.590075
     26          1           0       -4.644596    3.720788    0.057452
     27          1           0       -0.380279    4.958880    2.182542
     28          1           0       -0.729701    6.144528    0.888060
     29          1           0        0.730370    4.147054   -1.963134
     30          1           0       -0.082360    5.674696   -1.519369
     31          1           0       -4.336682   -0.626616    0.513567
     32          1           0       -6.597003   -3.408132   -1.898072
     33          1           0       -4.688253   -3.558570   -3.508746
     34          1           0       -2.636598   -2.183072   -3.151977
     35          1           0       -1.225216    1.261633    1.543501
     36          1           0       -0.960974    0.588615    3.905843
     37          1           0       -1.233802   -1.807820    4.576897
     38          1           0       -1.721434   -3.533087    2.828815
     39          1           0       -1.962363   -2.869589    0.453231
     40         15           0        1.703742   -0.730836   -0.794691
     41          6           0        1.922822    0.865840    0.131133
     42          6           0        2.981261    1.077385    1.039657
     43          6           0        3.079146    2.287419    1.738575
     44          6           0        2.153826    3.324897    1.523145
     45          6           0        1.125633    3.182521    0.580138
     46          6           0        1.053515    1.946376   -0.087999
     47          6           0        1.486109   -2.063603    0.449398
     48          6           0        1.753017   -1.933039    1.822058
     49          6           0        1.675143   -3.055601    2.658000
     50          6           0        1.339085   -4.310243    2.131057
     51          6           0        1.055021   -4.440705    0.763043
     52          6           0        1.118665   -3.321343   -0.075340
     53          6           0        3.446508   -0.978904   -1.339264
     54          6           0        4.236003   -2.039553   -0.862584
     55          6           0        6.138787   -1.191150   -2.115068
     56          6           0        5.580065   -2.142514   -1.253552
     57          6           0        5.349908   -0.133184   -2.594065
     58          6           0        4.008697   -0.027965   -2.215497
     59          1           0        3.728986    0.292160    1.190081
     60          1           0        2.259475    4.259496    2.082104
     61          1           0        3.895202    2.433241    2.452841
     62          1           0        0.943546    5.870891    1.392921
     63          1           0        1.613022    5.379252   -1.011515
     64          1           0        3.809315   -2.785404   -0.186623
     65          1           0        3.389036    0.780363   -2.613636
     66          1           0        2.002673   -0.955861    2.243958
     67          1           0        1.873470   -2.944920    3.729158
     68          1           0        1.287842   -5.184791    2.787858
     69          1           0        0.779532   -5.415225    0.346963
     70          1           0        0.890313   -3.410833   -1.144380
     71          1           0        5.776899    0.605623   -3.279673
     72          1           0        7.187187   -1.274756   -2.419537
     73          1           0        6.187912   -2.972806   -0.879282
     74          1           0       -6.415232   -1.925316    0.109484
 ---------------------------------------------------------------------
 Rotational constants (GHZ):      0.0976394      0.0790225      0.0578137
 Standard basis: def2TZVP (5D, 7F)
 There are  1716 symmetry adapted cartesian basis functions of A   symmetry.
 There are  1506 symmetry adapted basis functions of A   symmetry.
  1506 basis functions,  2434 primitive gaussians,  1716 cartesian basis functions
   152 alpha electrons      152 beta electrons
       nuclear repulsion energy      5349.7869674689 Hartrees.
 NAtoms=   74 NActive=   74 NUniq=   74 SFac= 1.00D+00 NAtFMM=   60 NAOKFM=T Big=T
 Integral buffers will be    131072 words long.
 Raffenetti 2 integral format.
 Two-electron integral symmetry is turned on.
 Nuclear repulsion after empirical dispersion term =     5349.6625952745 Hartrees.
 One-electron integrals computed using PRISM.
   1 Symmetry operations used in ECPInt.
 ECPInt:  NShTT=  176715 NPrTT=  548629 LenC2=  140024 LenP2D=  287694.
 LDataN:  DoStor=T MaxTD1= 6 Len=  172
 NBasis=  1506 RedAO= T EigKep=  4.15D-06  NBF=  1506
 NBsUse=  1506 1.00D-06 EigRej= -1.00D+00 NBFU=  1506
 ExpMin= 9.04D-02 ExpMax= 5.24D+04 ExpMxC= 1.79D+03 IAcc=3 IRadAn=         5 AccDes= 0.00D+00
 Harris functional with IExCor= 1009 and IRadAn=       5 diagonalized for initial guess.
 HarFok:  IExCor= 1009 AccDes= 0.00D+00 IRadAn=         5 IDoV= 1 UseB2=F ITyADJ=14
 ICtDFT=  3500011 ScaDFX=  1.000000  1.000000  1.000000  1.000000
 FoFCou: FMM=F IPFlag=           0 FMFlag=      100000 FMFlg1=        2001
         NFxFlg=           0 DoJE=T BraDBF=F KetDBF=T FulRan=T
         wScrn=  0.000000 ICntrl=     500 IOpCl=  0 I1Cent=   200000004 NGrid=           0
         NMat0=    1 NMatS0=      1 NMatT0=    0 NMatD0=    1 NMtDS0=    0 NMtDT0=    0
 Petite list used in FoFCou.
 Requested convergence on RMS density matrix=1.00D-08 within 128 cycles.
 Requested convergence on MAX density matrix=1.00D-06.
 Requested convergence on             energy=1.00D-06.
 No special actions if energy rises.
 Integral accuracy reduced to 1.0D-05 until final iterations.
 Problem detected with inexpensive integrals.
 Switching to full accuracy and repeating last cycle.
 SCF Done:  E(RPBE1PBE) =  -2261.88737685     A.U. after   15 cycles
            NFock= 15  Conv=0.66D-08     -V/T= 2.0048
 DoSCS=F DFT=T ScalE2(SS,OS)=  1.000000  1.000000
 Range of M.O.s used for correlation:     1  1506
 NBasis=  1506 NAE=   152 NBE=   152 NFC=     0 NFV=     0
 NROrb=   1506 NOA=   152 NOB=   152 NVA=  1354 NVB=  1354

 **** Warning!!: The largest alpha MO coefficient is  0.45899550D+02

          Differentiating once with respect to magnetic field using GIAOs.
          Electric field/nuclear overlap derivatives assumed to be zero.
 FoFCou: FMM=F IPFlag=           0 FMFlag=      100000 FMFlg1=        2001
         NFxFlg=           0 DoJE=F BraDBF=F KetDBF=T FulRan=T
         wScrn=  0.000000 ICntrl=    6100 IOpCl=  0 I1Cent=           7 NGrid=          74
         NMat0=    1 NMatS0=      1 NMatT0=    0 NMatD0=    1 NMtDS0=    0 NMtDT0=    0
 Symmetry not used in FoFCou.
   1 Symmetry operations used in ECPInt.
 ECPInt:  NShTT=  176715 NPrTT=  548629 LenC2=  176716 LenP2D=  548629.
 LDataN:  DoStor=T MaxTD1= 7 Len=  274
 FoFJK:  IHMeth= 1 ICntrl=    6127 DoSepK=F KAlg= 0 I1Cent=   0 FoldK=F
 IRaf=         1 NMat=   1 IRICut=       1 DoRegI=T DoRafI=F ISym2E= 0.
          There are     3 degrees of freedom in the 1st order CPHF.  IDoFFX=0 NUNeed=     3.
      3 vectors produced by pass  0 Test12= 6.86D-12 3.33D-08 XBig12= 1.95D+02 1.89D+00.
 AX will form     3 AO Fock derivatives at one time.
      3 vectors produced by pass  1 Test12= 6.86D-12 3.33D-08 XBig12= 8.70D-01 1.74D-01.
      3 vectors produced by pass  2 Test12= 6.86D-12 3.33D-08 XBig12= 3.98D-03 7.53D-03.
      3 vectors produced by pass  3 Test12= 6.86D-12 3.33D-08 XBig12= 1.23D-05 6.25D-04.
      3 vectors produced by pass  4 Test12= 6.86D-12 3.33D-08 XBig12= 7.64D-08 8.52D-05.
      3 vectors produced by pass  5 Test12= 6.86D-12 3.33D-08 XBig12= 4.83D-10 7.19D-06.
      3 vectors produced by pass  6 Test12= 6.86D-12 3.33D-08 XBig12= 2.60D-12 4.86D-07.
 InvSVY:  IOpt=1 It=  1 EMax= 5.33D-15
 Solved reduced A of dimension    21 with     3 vectors.
 Calculating GIAO nuclear magnetic shielding tensors.
 SCF GIAO Magnetic shielding tensor (ppm):
      1  P    Isotropic =   296.9538   Anisotropy =    53.0288
   XX=   293.9229   YX=    -0.5692   ZX=   -41.2997
   XY=   -14.3183   YY=   265.5372   ZY=     0.2491
   XZ=    29.5268   YZ=    -1.7392   ZZ=   331.4011
   Eigenvalues:   263.6357   294.9194   332.3063
      2  C    Isotropic =    48.4826   Anisotropy =   162.7068
   XX=    11.5347   YX=     2.5328   ZX=     9.9350
   XY=     2.1387   YY=   -16.1266   ZY=   -27.0061
   XZ=    -3.6710   YZ=   -41.9349   ZZ=   150.0398
   Eigenvalues:   -23.2362    11.7303   156.9538
      3  C    Isotropic =    47.8389   Anisotropy =   188.9040
   XX=   -30.9204   YX=   -38.5475   ZX=     0.1409
   XY=   -49.1117   YY=    12.6495   ZY=   -48.7441
   XZ=    13.3744   YZ=   -32.8632   ZZ=   161.7875
   Eigenvalues:   -59.2827    29.0244   173.7748
      4  C    Isotropic =    55.0350   Anisotropy =   176.9674
   XX=   -38.1034   YX=    30.7291   ZX=    21.0040
   XY=    27.2813   YY=    52.4204   ZY=   -47.9732
   XZ=    35.8389   YZ=   -52.4750   ZZ=   150.7880
   Eigenvalues:   -55.5051    47.5968   173.0133
      5  C    Isotropic =    55.6871   Anisotropy =   176.6689
   XX=    37.9423   YX=     1.7128   ZX=     6.8646
   XY=     6.8575   YY=    -9.1744   ZY=   -79.2363
   XZ=    19.2859   YZ=   -78.9313   ZZ=   138.2934
   Eigenvalues:   -44.5843    38.1792   173.4663
      6  C    Isotropic =    43.9480   Anisotropy =   167.0839
   XX=   -18.5071   YX=   -22.9214   ZX=    -5.6545
   XY=   -13.6020   YY=    16.1876   ZY=   -69.3189
   XZ=    -5.5479   YZ=   -39.2065   ZZ=   134.1635
   Eigenvalues:   -31.9628     8.4695   155.3373
      7  C    Isotropic =    20.7795   Anisotropy =   129.0836
   XX=   -56.6054   YX=    35.2918   ZX=    28.0392
   XY=    31.6182   YY=    21.4505   ZY=   -35.8700
   XZ=    11.1612   YZ=   -19.0191   ZZ=    97.4933
   Eigenvalues:   -73.6230    29.1262   106.8352
      8  O    Isotropic =   140.9172   Anisotropy =   191.6595
   XX=    95.3766   YX=    32.7456   ZX=   -47.6500
   XY=    31.9927   YY=   117.1156   ZY=   -65.8352
   XZ=   -51.9126   YZ=   -75.8508   ZZ=   210.2594
   Eigenvalues:    72.0695    81.9919   268.6902
      9  C    Isotropic =   142.5382   Anisotropy =     8.3190
   XX=   142.2016   YX=    -1.7458   ZX=    -2.4824
   XY=     0.7409   YY=   138.7812   ZY=    -7.6529
   XZ=    -1.5310   YZ=     1.9771   ZZ=   146.6318
   Eigenvalues:   137.5841   141.9464   148.0842
     10  C    Isotropic =   162.5724   Anisotropy =    30.1839
   XX=   149.1577   YX=     0.1547   ZX=    -6.4809
   XY=    -2.0252   YY=   162.4493   ZY=    13.1544
   XZ=    -7.1835   YZ=     6.9585   ZZ=   176.1100
   Eigenvalues:   147.3520   157.6701   182.6949
     11  C    Isotropic =   153.6335   Anisotropy =    44.4428
   XX=   148.5107   YX=     7.8838   ZX=    -9.3551
   XY=     4.5885   YY=   147.8181   ZY=   -17.2154
   XZ=   -10.5194   YZ=   -25.8660   ZZ=   164.5717
   Eigenvalues:   133.0655   144.5730   183.2620
     12  C    Isotropic =    32.3751   Anisotropy =   203.1614
   XX=   159.2623   YX=   -16.1792   ZX=   -33.9223
   XY=   -19.8656   YY=   -18.9743   ZY=    13.6402
   XZ=   -39.8477   YZ=     6.7376   ZZ=   -43.1627
   Eigenvalues:   -51.2352   -19.4554   167.8160
     13  C    Isotropic =    51.4847   Anisotropy =   194.3966
   XX=   175.0437   YX=   -21.5383   ZX=   -19.4579
   XY=   -26.3128   YY=   -53.2599   ZY=    26.1340
   XZ=   -21.9419   YZ=    17.7680   ZZ=    32.6701
   Eigenvalues:   -60.0283    33.3999   181.0824
     14  C    Isotropic =    55.2137   Anisotropy =   183.1109
   XX=   167.6848   YX=   -33.5818   ZX=   -32.9718
   XY=   -32.3764   YY=     1.3870   ZY=   -45.7226
   XZ=   -32.7476   YZ=   -49.1852   ZZ=    -3.4307
   Eigenvalues:   -58.1285    46.4820   177.2876
     15  C    Isotropic =    55.2932   Anisotropy =   185.1191
   XX=   171.1136   YX=   -20.6445   ZX=   -30.7380
   XY=   -18.2137   YY=    37.4417   ZY=    25.1862
   XZ=   -28.0016   YZ=    23.1485   ZZ=   -42.6757
   Eigenvalues:   -51.8728    39.0465   178.7059
     16  C    Isotropic =    52.8192   Anisotropy =   192.7042
   XX=   174.7579   YX=   -27.1906   ZX=   -18.3631
   XY=   -31.5657   YY=   -48.6641   ZY=    26.7692
   XZ=   -15.1686   YZ=    25.9125   ZZ=    32.3639
   Eigenvalues:   -58.8799    36.0489   181.2887
     17  C    Isotropic =    46.5866   Anisotropy =   201.6080
   XX=   170.6039   YX=   -37.9928   ZX=   -30.2468
   XY=   -39.7006   YY=   -17.3610   ZY=   -46.4702
   XZ=   -30.7292   YZ=   -32.2424   ZZ=   -13.4830
   Eigenvalues:   -65.0895    23.8574   180.9920
     18  C    Isotropic =    37.4085   Anisotropy =   206.8186
   XX=   -11.5258   YX=   -70.0566   ZX=    39.2845
   XY=   -66.3280   YY=    77.1547   ZY=   -89.0439
   XZ=    25.7908   YZ=   -77.0474   ZZ=    46.5968
   Eigenvalues:   -50.9442   -12.1178   175.2876
     19  C    Isotropic =    36.2838   Anisotropy =   197.0767
   XX=    48.9448   YX=   -45.3636   ZX=    29.4018
   XY=   -57.7559   YY=    73.7918   ZY=   -97.7890
   XZ=    31.1148   YZ=   -98.8831   ZZ=   -13.8852
   Eigenvalues:   -77.7776    18.9607   167.6683
     20  C    Isotropic =    50.4530   Anisotropy =   190.0964
   XX=    -8.4583   YX=   -85.9591   ZX=    16.3980
   XY=   -82.6574   YY=    88.2280   ZY=   -64.4812
   XZ=    15.9200   YZ=   -66.1552   ZZ=    71.5895
   Eigenvalues:   -60.4732    34.6484   177.1840
     21  C    Isotropic =    51.5795   Anisotropy =   184.9392
   XX=     6.9454   YX=   -33.1962   ZX=    79.9469
   XY=   -36.3641   YY=   115.8819   ZY=   -58.3398
   XZ=    77.1955   YZ=   -57.4336   ZZ=    31.9111
   Eigenvalues:   -60.9594    40.8255   174.8723
     22  C    Isotropic =    52.4907   Anisotropy =   184.5388
   XX=    63.0830   YX=   -45.7116   ZX=    21.0499
   XY=   -46.2436   YY=    81.4997   ZY=   -96.3574
   XZ=    24.9594   YZ=  -102.8004   ZZ=    12.8893
   Eigenvalues:   -58.7071    40.6626   175.5165
     23  C    Isotropic =    41.6044   Anisotropy =   183.5623
   XX=    -3.7786   YX=   -32.5331   ZX=    85.6729
   XY=   -35.9831   YY=   101.7431   ZY=   -58.8330
   XZ=    81.6031   YZ=   -52.2197   ZZ=    26.8488
   Eigenvalues:   -74.0570    34.8911   163.9793
     24  H    Isotropic =    23.7169   Anisotropy =    10.3806
   XX=    24.3099   YX=    -4.0582   ZX=     0.4013
   XY=    -1.8447   YY=    28.9804   ZY=     3.0160
   XZ=    -1.2931   YZ=     0.3481   ZZ=    17.8606
   Eigenvalues:    17.6117    22.9018    30.6373
     25  H    Isotropic =    23.7039   Anisotropy =     8.8863
   XX=    29.5988   YX=    -0.7879   ZX=     0.5428
   XY=     1.5921   YY=    22.1087   ZY=     0.9642
   XZ=    -0.1661   YZ=     2.3832   ZZ=    19.4043
   Eigenvalues:    18.6048    22.8788    29.6282
     26  H    Isotropic =    23.9483   Anisotropy =     5.4250
   XX=    24.9694   YX=    -0.0141   ZX=     0.9034
   XY=     0.6684   YY=    26.9524   ZY=     2.3857
   XZ=     1.3001   YZ=     1.3855   ZZ=    19.9231
   Eigenvalues:    19.2763    25.0037    27.5649
     27  H    Isotropic =    29.8192   Anisotropy =     9.0052
   XX=    27.4928   YX=    -0.8477   ZX=    -2.0470
   XY=    -0.3398   YY=    27.0510   ZY=     0.8934
   XZ=    -1.7236   YZ=     2.9414   ZZ=    34.9136
   Eigenvalues:    26.5598    27.0750    35.8226
     28  H    Isotropic =    29.2720   Anisotropy =     9.2362
   XX=    29.4150   YX=    -3.3579   ZX=     0.7381
   XY=    -3.7949   YY=    33.1329   ZY=     1.4620
   XZ=     0.7617   YZ=     2.0455   ZZ=    25.2681
   Eigenvalues:    24.3299    28.0566    35.4294
     29  H    Isotropic =    29.2612   Anisotropy =     7.1042
   XX=    23.8004   YX=     1.0922   ZX=    -3.1875
   XY=     0.7216   YY=    31.0023   ZY=    -0.2197
   XZ=    -3.1191   YZ=     0.0871   ZZ=    32.9809
   Eigenvalues:    22.7348    31.0515    33.9973
     30  H    Isotropic =    30.0754   Anisotropy =    10.0363
   XX=    27.3739   YX=    -1.4700   ZX=     0.6206
   XY=    -2.1256   YY=    32.6290   ZY=    -3.3444
   XZ=     1.0487   YZ=    -6.2431   ZZ=    30.2234
   Eigenvalues:    26.2267    27.2332    36.7663
     31  H    Isotropic =    24.0459   Anisotropy =    12.9950
   XX=    31.7877   YX=     1.8369   ZX=     2.1745
   XY=     3.9760   YY=    21.7521   ZY=    -2.1658
   XZ=    -3.9088   YZ=    -2.1213   ZZ=    18.5978
   Eigenvalues:    17.4909    21.9376    32.7092
     32  H    Isotropic =    23.7704   Anisotropy =     3.8426
   XX=    24.3277   YX=     0.7557   ZX=    -0.8981
   XY=     0.5471   YY=    22.4067   ZY=     2.2948
   XZ=    -1.6868   YZ=     2.2460   ZZ=    24.5769
   Eigenvalues:    20.5562    24.4230    26.3322
     33  H    Isotropic =    23.6583   Anisotropy =     5.7197
   XX=    26.5012   YX=     2.3824   ZX=    -0.4774
   XY=     2.1246   YY=    22.2154   ZY=     1.3276
   XZ=    -0.8442   YZ=     1.0966   ZZ=    22.2583
   Eigenvalues:    20.2885    23.2150    27.4715
     34  H    Isotropic =    22.8605   Anisotropy =     9.2803
   XX=    22.6367   YX=     2.6852   ZX=     3.4845
   XY=     2.9483   YY=    23.4132   ZY=     3.4454
   XZ=     2.2125   YZ=     3.6602   ZZ=    22.5318
   Eigenvalues:    19.3264    20.2078    29.0474
     35  H    Isotropic =    26.0962   Anisotropy =     9.5221
   XX=    23.0561   YX=     0.1347   ZX=     0.6850
   XY=     0.5883   YY=    24.3722   ZY=    -2.2170
   XZ=     1.2122   YZ=    -4.7816   ZZ=    30.8603
   Eigenvalues:    22.2092    23.6352    32.4443
     36  H    Isotropic =    25.1526   Anisotropy =     7.9165
   XX=    21.5268   YX=    -0.2910   ZX=    -1.6571
   XY=     0.2096   YY=    25.6194   ZY=    -3.0093
   XZ=    -0.9302   YZ=    -3.0978   ZZ=    28.3114
   Eigenvalues:    21.1793    23.8482    30.4302
     37  H    Isotropic =    24.8668   Anisotropy =     2.8906
   XX=    22.3082   YX=     0.7125   ZX=    -2.3223
   XY=     0.3833   YY=    26.7128   ZY=     0.4747
   XZ=    -0.5490   YZ=    -0.3306   ZZ=    25.5794
   Eigenvalues:    21.7096    26.0969    26.7938
     38  H    Isotropic =    25.3970   Anisotropy =     3.5984
   XX=    25.9680   YX=     1.5213   ZX=    -1.5007
   XY=    -0.5479   YY=    22.9319   ZY=    -0.4965
   XZ=    -0.1230   YZ=    -0.7235   ZZ=    27.2911
   Eigenvalues:    22.8021    25.5931    27.7959
     39  H    Isotropic =    25.6290   Anisotropy =    11.2425
   XX=    27.9815   YX=    -0.2428   ZX=     3.9801
   XY=    -3.7934   YY=    24.3311   ZY=    -5.8303
   XZ=     2.5664   YZ=    -5.9860   ZZ=    24.5743
   Eigenvalues:    18.4569    25.3060    33.1240
     40  P    Isotropic =   321.2583   Anisotropy =    54.4847
   XX=   330.3691   YX=    16.4216   ZX=   -28.2999
   XY=    17.9043   YY=   307.7109   ZY=   -24.1372
   XZ=    12.2347   YZ=   -33.6259   ZZ=   325.6949
   Eigenvalues:   284.4737   321.7198   357.5815
     41  C    Isotropic =    48.4347   Anisotropy =   166.7789
   XX=    68.7616   YX=    24.2957   ZX=   -64.8323
   XY=    31.6995   YY=     0.7198   ZY=   -44.6367
   XZ=   -76.8922   YZ=   -42.6504   ZZ=    75.8226
   Eigenvalues:   -19.7417     5.4251   159.6206
     42  C    Isotropic =    39.5057   Anisotropy =   193.7520
   XX=    22.2260   YX=    68.2368   ZX=   -77.8834
   XY=    72.9429   YY=    -5.5814   ZY=   -34.5715
   XZ=   -66.9143   YZ=   -27.5199   ZZ=   101.8725
   Eigenvalues:   -67.3347    17.1781   168.6737
     43  C    Isotropic =    57.4141   Anisotropy =   173.6679
   XX=    35.1342   YX=    20.2963   ZX=  -100.0713
   XY=    18.5805   YY=    66.6763   ZY=   -39.9741
   XZ=  -102.2536   YZ=   -40.5642   ZZ=    70.4316
   Eigenvalues:   -51.0283    50.0778   173.1926
     44  C    Isotropic =    55.2429   Anisotropy =   178.5706
   XX=    89.5730   YX=    22.2077   ZX=   -60.4989
   XY=    23.2787   YY=    -8.9453   ZY=   -72.8005
   XZ=   -68.3488   YZ=   -61.3704   ZZ=    85.1011
   Eigenvalues:   -44.7044    36.1432   174.2900
     45  C    Isotropic =    45.3526   Anisotropy =   167.8908
   XX=    45.7291   YX=    44.6495   ZX=   -73.1428
   XY=    47.7086   YY=     0.1218   ZY=   -40.2942
   XZ=   -65.7112   YZ=   -17.0118   ZZ=    90.2070
   Eigenvalues:   -30.7795     9.5575   157.2798
     46  C    Isotropic =    19.1693   Anisotropy =   133.3683
   XX=     4.7274   YX=     7.0208   ZX=   -80.7035
   XY=     9.2409   YY=    27.7815   ZY=   -29.5921
   XZ=   -88.6034   YZ=   -23.2706   ZZ=    24.9989
   Eigenvalues:   -71.7654    21.1918   108.0814
     47  C    Isotropic =    41.5338   Anisotropy =   210.8128
   XX=   169.5674   YX=   -31.9230   ZX=   -24.4088
   XY=   -51.0843   YY=   -28.3148   ZY=    33.8236
   XZ=   -20.7390   YZ=    30.6800   ZZ=   -16.6512
   Eigenvalues:   -56.7865    -0.6877   182.0756
     48  C    Isotropic =    46.9798   Anisotropy =   204.5701
   XX=   164.8183   YX=   -63.0330   ZX=   -34.8573
   XY=   -48.6086   YY=   -36.1626   ZY=   -28.4317
   XZ=   -33.6436   YZ=   -28.8155   ZZ=    12.2836
   Eigenvalues:   -67.6852    25.2647   183.3598
     49  C    Isotropic =    48.7766   Anisotropy =   195.2817
   XX=   164.6503   YX=   -36.4791   ZX=   -41.5663
   XY=   -28.1893   YY=    38.5555   ZY=    -4.8154
   XZ=   -41.4721   YZ=    -6.4067   ZZ=   -56.8760
   Eigenvalues:   -65.6732    33.0386   178.9644
     50  C    Isotropic =    52.8525   Anisotropy =   188.2123
   XX=   168.9483   YX=   -27.2331   ZX=   -21.5947
   XY=   -30.5373   YY=   -18.5375   ZY=    49.9227
   XZ=   -20.9949   YZ=    48.2258   ZZ=     8.1466
   Eigenvalues:   -56.5201    36.7502   178.3274
     51  C    Isotropic =    52.6297   Anisotropy =   186.5958
   XX=   160.5509   YX=   -49.6535   ZX=   -33.5372
   XY=   -48.6575   YY=   -31.7589   ZY=   -29.4713
   XZ=   -33.3093   YZ=   -28.8449   ZZ=    29.0973
   Eigenvalues:   -58.9519    39.8141   177.0269
     52  C    Isotropic =    46.0709   Anisotropy =   188.2132
   XX=   152.7430   YX=   -47.6773   ZX=   -44.1141
   XY=   -27.7004   YY=    45.0865   ZY=   -13.6031
   XZ=   -42.7931   YZ=     2.5915   ZZ=   -59.6169
   Eigenvalues:   -69.6368    36.3031   171.5463
     53  C    Isotropic =    30.8656   Anisotropy =   206.9888
   XX=   -32.1394   YX=    45.6207   ZX=    51.3790
   XY=    31.6983   YY=    38.7257   ZY=    85.9145
   XZ=    49.6756   YZ=    80.1931   ZZ=    86.0105
   Eigenvalues:   -52.2813   -23.9800   168.8581
     54  C    Isotropic =    48.1970   Anisotropy =   191.1173
   XX=    36.1344   YX=     1.5666   ZX=    47.5051
   XY=     1.1760   YY=    31.6593   ZY=    99.6585
   XZ=    60.0033   YZ=   111.3271   ZZ=    76.7973
   Eigenvalues:   -65.1409    34.1233   175.6085
     55  C    Isotropic =    54.6209   Anisotropy =   181.5492
   XX=   -36.7931   YX=    28.3946   ZX=    52.2698
   XY=    26.3660   YY=    81.5399   ZY=    57.5365
   XZ=    51.5493   YZ=    55.1391   ZZ=   119.1160
   Eigenvalues:   -53.3498    41.5589   175.6538
     56  C    Isotropic =    52.4046   Anisotropy =   182.4638
   XX=    19.4491   YX=    63.9968   ZX=     5.0857
   XY=    62.8507   YY=    27.2539   ZY=    82.7987
   XZ=     9.3015   YZ=    86.0342   ZZ=   110.5107
   Eigenvalues:   -59.8972    43.0638   174.0471
     57  C    Isotropic =    52.5733   Anisotropy =   183.4418
   XX=    37.4558   YX=    -7.8725   ZX=    50.7226
   XY=    -5.8730   YY=    36.9693   ZY=   100.9174
   XZ=    51.3378   YZ=   104.0824   ZZ=    83.2947
   Eigenvalues:   -60.0376    42.8896   174.8678
     58  C    Isotropic =    48.0581   Anisotropy =   185.0612
   XX=    20.5234   YX=    53.5640   ZX=     7.4673
   XY=    71.0063   YY=    22.0749   ZY=    82.8518
   XZ=    13.9021   YZ=    93.1980   ZZ=   101.5760
   Eigenvalues:   -63.3766    36.1186   171.4322
     59  H    Isotropic =    24.3528   Anisotropy =     9.8641
   XX=    23.7157   YX=     4.1642   ZX=     3.5783
   XY=     1.2780   YY=    24.2212   ZY=     5.9342
   XZ=     0.2012   YZ=     3.6272   ZZ=    25.1215
   Eigenvalues:    19.6848    22.4448    30.9288
     60  H    Isotropic =    23.7652   Anisotropy =     8.8529
   XX=    25.7227   YX=    -2.0763   ZX=     4.1285
   XY=    -3.7151   YY=    23.1459   ZY=    -0.8818
   XZ=     4.6932   YZ=     0.9881   ZZ=    22.4269
   Eigenvalues:    18.6412    22.9871    29.6671
     61  H    Isotropic =    24.2317   Anisotropy =     5.3197
   XX=    23.5291   YX=    -0.5063   ZX=     2.0642
   XY=    -1.7094   YY=    26.8697   ZY=     2.3050
   XZ=     1.3992   YZ=     2.0386   ZZ=    22.2965
   Eigenvalues:    20.1983    24.7188    27.7782
     62  H    Isotropic =    29.2496   Anisotropy =     9.0491
   XX=    30.1400   YX=     2.3286   ZX=     2.8393
   XY=     2.5040   YY=    31.2002   ZY=     3.2304
   XZ=     2.9626   YZ=     3.2795   ZZ=    26.4086
   Eigenvalues:    24.2614    28.2049    35.2823
     63  H    Isotropic =    30.1650   Anisotropy =     9.6382
   XX=    31.6402   YX=     4.9685   ZX=    -1.4847
   XY=     3.3928   YY=    30.7972   ZY=    -1.1596
   XZ=    -2.8312   YZ=    -3.4849   ZZ=    28.0575
   Eigenvalues:    26.6865    27.2180    36.5905
     64  H    Isotropic =    25.0452   Anisotropy =    16.2471
   XX=    34.0031   YX=    -1.6501   ZX=    -6.0469
   XY=    -4.3984   YY=    21.3365   ZY=     0.9234
   XZ=    -2.6619   YZ=     0.1918   ZZ=    19.7959
   Eigenvalues:    18.5315    20.7275    35.8766
     65  H    Isotropic =    23.8729   Anisotropy =    11.9565
   XX=    26.5174   YX=     1.1052   ZX=    -6.7783
   XY=     1.1220   YY=    19.9211   ZY=    -1.3229
   XZ=    -4.7820   YZ=    -0.5380   ZZ=    25.1801
   Eigenvalues:    19.7375    20.0372    31.8439
     66  H    Isotropic =    24.7933   Anisotropy =     8.8426
   XX=    23.7691   YX=     2.5483   ZX=     0.1415
   XY=    -1.1952   YY=    24.3367   ZY=    -3.7379
   XZ=     0.6505   YZ=    -6.8473   ZZ=    26.2740
   Eigenvalues:    19.7751    23.9164    30.6883
     67  H    Isotropic =    24.2680   Anisotropy =     5.6703
   XX=    22.8769   YX=    -0.4430   ZX=     1.4262
   XY=    -0.4615   YY=    27.0186   ZY=    -1.8757
   XZ=     0.7400   YZ=    -2.3458   ZZ=    22.9086
   Eigenvalues:    21.4891    23.2667    28.0483
     68  H    Isotropic =    24.0612   Anisotropy =     2.9528
   XX=    21.6270   YX=    -0.7147   ZX=     1.6335
   XY=    -0.1778   YY=    25.5199   ZY=     0.6079
   XZ=     1.5214   YZ=     0.6035   ZZ=    25.0368
   Eigenvalues:    20.9204    25.2335    26.0297
     69  H    Isotropic =    23.9649   Anisotropy =     5.0256
   XX=    21.1432   YX=    -1.1031   ZX=     0.2912
   XY=    -0.6224   YY=    25.6327   ZY=    -1.6442
   XZ=     1.2388   YZ=    -1.7657   ZZ=    25.1187
   Eigenvalues:    20.9277    23.6516    27.3153
     70  H    Isotropic =    23.4093   Anisotropy =     7.4946
   XX=    22.8101   YX=     1.4957   ZX=    -0.7364
   XY=     0.9056   YY=    28.1283   ZY=    -0.2499
   XZ=     1.4388   YZ=    -0.7481   ZZ=    19.2894
   Eigenvalues:    19.2106    22.6116    28.4057
     71  H    Isotropic =    24.0799   Anisotropy =     6.3603
   XX=    27.2999   YX=    -1.9750   ZX=    -1.9501
   XY=    -1.8518   YY=    22.6824   ZY=    -1.0904
   XZ=    -1.5826   YZ=    -0.5729   ZZ=    22.2574
   Eigenvalues:    20.6145    23.3051    28.3201
     72  H    Isotropic =    24.2070   Anisotropy =     3.5144
   XX=    24.7624   YX=    -0.7990   ZX=    -1.2947
   XY=    -0.8325   YY=    24.7772   ZY=    -2.5882
   XZ=    -1.0017   YZ=    -2.3711   ZZ=    23.0816
   Eigenvalues:    20.8072    25.2639    26.5500
     73  H    Isotropic =    24.2653   Anisotropy =     7.4212
   XX=    27.7458   YX=     0.1922   ZX=    -3.2661
   XY=    -0.0932   YY=    22.7243   ZY=    -1.4265
   XZ=    -2.9623   YZ=    -1.0383   ZZ=    22.3259
   Eigenvalues:    20.3821    23.2011    29.2128
     74  H    Isotropic =    24.0107   Anisotropy =     6.8788
   XX=    26.1166   YX=     2.8522   ZX=     1.7043
   XY=     2.7103   YY=    23.5390   ZY=     2.2495
   XZ=     0.3836   YZ=     2.1035   ZZ=    22.3764
   Eigenvalues:    20.5120    22.9236    28.5965
 End of Minotr F.D. properties file   721 does not exist.
 End of Minotr F.D. properties file   722 does not exist.
 End of Minotr F.D. properties file   788 does not exist.

 **********************************************************************

            Population analysis using the SCF density.

 **********************************************************************

 Orbital symmetries:
       Occupied  (A) (A) (A) (A) (A) (A) (A) (A) (A) (A) (A) (A)
                 (A) (A) (A) (A) (A) (A) (A) (A) (A) (A) (A) (A)
                 (A) (A) (A) (A) (A) (A) (A) (A) (A) (A) (A) (A)
                 (A) (A) (A) (A) (A) (A) (A) (A) (A) (A) (A) (A)
                 (A) (A) (A) (A) (A) (A) (A) (A) (A) (A) (A) (A)
                 (A) (A) (A) (A) (A) (A) (A) (A) (A) (A) (A) (A)
                 (A) (A) (A) (A) (A) (A) (A) (A) (A) (A) (A) (A)
                 (A) (A) (A) (A) (A) (A) (A) (A) (A) (A) (A) (A)
                 (A) (A) (A) (A) (A) (A) (A) (A) (A) (A) (A) (A)
                 (A) (A) (A) (A) (A) (A) (A) (A) (A) (A) (A) (A)
                 (A) (A) (A) (A) (A) (A) (A) (A) (A) (A) (A) (A)
                 (A) (A) (A) (A) (A) (A) (A) (A) (A) (A) (A) (A)
                 (A) (A) (A) (A) (A) (A) (A) (A)
       Virtual   (A) (A) (A) (A) (A) (A) (A) (A) (A) (A) (A) (A)
                 (A) (A) (A) (A) (A) (A) (A) (A) (A) (A) (A) (A)
                 (A) (A) (A) (A) (A) (A) (A) (A) (A) (A) (A) (A)
                 (A) (A) (A) (A) (A) (A) (A) (A) (A) (A) (A) (A)
                 (A) (A) (A) (A) (A) (A) (A) (A) (A) (A) (A) (A)
                 (A) (A) (A) (A) (A) (A) (A) (A) (A) (A) (A) (A)
                 (A) (A) (A) (A) (A) (A) (A) (A) (A) (A) (A) (A)
                 (A) (A) (A) (A) (A) (A) (A) (A) (A) (A) (A) (A)
                 (A) (A) (A) (A) (A) (A) (A) (A) (A) (A) (A) (A)
                 (A) (A) (A) (A) (A) (A) (A) (A) (A) (A) (A) (A)
                 (A) (A) (A) (A) (A) (A) (A) (A) (A) (A) (A) (A)
                 (A) (A) (A) (A) (A) (A) (A) (A) (A) (A) (A) (A)
                 (A) (A) (A) (A) (A) (A) (A) (A) (A) (A) (A) (A)
                 (A) (A) (A) (A) (A) (A) (A) (A) (A) (A) (A) (A)
                 (A) (A) (A) (A) (A) (A) (A) (A) (A) (A) (A) (A)
                 (A) (A) (A) (A) (A) (A) (A) (A) (A) (A) (A) (A)
                 (A) (A) (A) (A) (A) (A) (A) (A) (A) (A) (A) (A)
                 (A) (A) (A) (A) (A) (A) (A) (A) (A) (A) (A) (A)
                 (A) (A) (A) (A) (A) (A) (A) (A) (A) (A) (A) (A)
                 (A) (A) (A) (A) (A) (A) (A) (A) (A) (A) (A) (A)
                 (A) (A) (A) (A) (A) (A) (A) (A) (A) (A) (A) (A)
                 (A) (A) (A) (A) (A) (A) (A) (A) (A) (A) (A) (A)
                 (A) (A) (A) (A) (A) (A) (A) (A) (A) (A) (A) (A)
                 (A) (A) (A) (A) (A) (A) (A) (A) (A) (A) (A) (A)
                 (A) (A) (A) (A) (A) (A) (A) (A) (A) (A) (A) (A)
                 (A) (A) (A) (A) (A) (A) (A) (A) (A) (A) (A) (A)
                 (A) (A) (A) (A) (A) (A) (A) (A) (A) (A) (A) (A)
                 (A) (A) (A) (A) (A) (A) (A) (A) (A) (A) (A) (A)
                 (A) (A) (A) (A) (A) (A) (A) (A) (A) (A) (A) (A)
                 (A) (A) (A) (A) (A) (A) (A) (A) (A) (A) (A) (A)
                 (A) (A) (A) (A) (A) (A) (A) (A) (A) (A) (A) (A)
                 (A) (A) (A) (A) (A) (A) (A) (A) (A) (A) (A) (A)
                 (A) (A) (A) (A) (A) (A) (A) (A) (A) (A) (A) (A)
                 (A) (A) (A) (A) (A) (A) (A) (A) (A) (A) (A) (A)
                 (A) (A) (A) (A) (A) (A) (A) (A) (A) (A) (A) (A)
                 (A) (A) (A) (A) (A) (A) (A) (A) (A) (A) (A) (A)
                 (A) (A) (A) (A) (A) (A) (A) (A) (A) (A) (A) (A)
                 (A) (A) (A) (A) (A) (A) (A) (A) (A) (A) (A) (A)
                 (A) (A) (A) (A) (A) (A) (A) (A) (A) (A) (A) (A)
                 (A) (A) (A) (A) (A) (A) (A) (A) (A) (A) (A) (A)
                 (A) (A) (A) (A) (A) (A) (A) (A) (A) (A) (A) (A)
                 (A) (A) (A) (A) (A) (A) (A) (A) (A) (A) (A) (A)
                 (A) (A) (A) (A) (A) (A) (A) (A) (A) (A) (A) (A)
                 (A) (A) (A) (A) (A) (A) (A) (A) (A) (A) (A) (A)
                 (A) (A) (A) (A) (A) (A) (A) (A) (A) (A) (A) (A)
                 (A) (A) (A) (A) (A) (A) (A) (A) (A) (A) (A) (A)
                 (A) (A) (A) (A) (A) (A) (A) (A) (A) (A) (A) (A)
                 (A) (A) (A) (A) (A) (A) (A) (A) (A) (A) (A) (A)
                 (A) (A) (A) (A) (A) (A) (A) (A) (A) (A) (A) (A)
                 (A) (A) (A) (A) (A) (A) (A) (A) (A) (A) (A) (A)
                 (A) (A) (A) (A) (A) (A) (A) (A) (A) (A) (A) (A)
                 (A) (A) (A) (A) (A) (A) (A) (A) (A) (A) (A) (A)
                 (A) (A) (A) (A) (A) (A) (A) (A) (A) (A) (A) (A)
                 (A) (A) (A) (A) (A) (A) (A) (A) (A) (A) (A) (A)
                 (A) (A) (A) (A) (A) (A) (A) (A) (A) (A) (A) (A)
                 (A) (A) (A) (A) (A) (A) (A) (A) (A) (A) (A) (A)
                 (A) (A) (A) (A) (A) (A) (A) (A) (A) (A) (A) (A)
                 (A) (A) (A) (A) (A) (A) (A) (A) (A) (A) (A) (A)
                 (A) (A) (A) (A) (A) (A) (A) (A) (A) (A) (A) (A)
                 (A) (A) (A) (A) (A) (A) (A) (A) (A) (A) (A) (A)
                 (A) (A) (A) (A) (A) (A) (A) (A) (A) (A) (A) (A)
                 (A) (A) (A) (A) (A) (A) (A) (A) (A) (A) (A) (A)
                 (A) (A) (A) (A) (A) (A) (A) (A) (A) (A) (A) (A)
                 (A) (A) (A) (A) (A) (A) (A) (A) (A) (A) (A) (A)
                 (A) (A) (A) (A) (A) (A) (A) (A) (A) (A) (A) (A)
                 (A) (A) (A) (A) (A) (A) (A) (A) (A) (A) (A) (A)
                 (A) (A) (A) (A) (A) (A) (A) (A) (A) (A) (A) (A)
                 (A) (A) (A) (A) (A) (A) (A) (A) (A) (A) (A) (A)
                 (A) (A) (A) (A) (A) (A) (A) (A) (A) (A) (A) (A)
                 (A) (A) (A) (A) (A) (A) (A) (A) (A) (A) (A) (A)
                 (A) (A) (A) (A) (A) (A) (A) (A) (A) (A) (A) (A)
                 (A) (A) (A) (A) (A) (A) (A) (A) (A) (A) (A) (A)
                 (A) (A) (A) (A) (A) (A) (A) (A) (A) (A) (A) (A)
                 (A) (A) (A) (A) (A) (A) (A) (A) (A) (A) (A) (A)
                 (A) (A) (A) (A) (A) (A) (A) (A) (A) (A) (A) (A)
                 (A) (A) (A) (A) (A) (A) (A) (A) (A) (A) (A) (A)
                 (A) (A) (A) (A) (A) (A) (A) (A) (A) (A) (A) (A)
                 (A) (A) (A) (A) (A) (A) (A) (A) (A) (A) (A) (A)
                 (A) (A) (A) (A) (A) (A) (A) (A) (A) (A) (A) (A)
                 (A) (A) (A) (A) (A) (A) (A) (A) (A) (A) (A) (A)
                 (A) (A) (A) (A) (A) (A) (A) (A) (A) (A) (A) (A)
                 (A) (A) (A) (A) (A) (A) (A) (A) (A) (A) (A) (A)
                 (A) (A) (A) (A) (A) (A) (A) (A) (A) (A) (A) (A)
                 (A) (A) (A) (A) (A) (A) (A) (A) (A) (A) (A) (A)
                 (A) (A) (A) (A) (A) (A) (A) (A) (A) (A) (A) (A)
                 (A) (A) (A) (A) (A) (A) (A) (A) (A) (A) (A) (A)
                 (A) (A) (A) (A) (A) (A) (A) (A) (A) (A) (A) (A)
                 (A) (A) (A) (A) (A) (A) (A) (A) (A) (A) (A) (A)
                 (A) (A) (A) (A) (A) (A) (A) (A) (A) (A) (A) (A)
                 (A) (A) (A) (A) (A) (A) (A) (A) (A) (A) (A) (A)
                 (A) (A) (A) (A) (A) (A) (A) (A) (A) (A) (A) (A)
                 (A) (A) (A) (A) (A) (A) (A) (A) (A) (A) (A) (A)
                 (A) (A) (A) (A) (A) (A) (A) (A) (A) (A) (A) (A)
                 (A) (A) (A) (A) (A) (A) (A) (A) (A) (A) (A) (A)
                 (A) (A) (A) (A) (A) (A) (A) (A) (A) (A) (A) (A)
                 (A) (A) (A) (A) (A) (A) (A) (A) (A) (A) (A) (A)
                 (A) (A) (A) (A) (A) (A) (A) (A) (A) (A) (A) (A)
                 (A) (A) (A) (A) (A) (A) (A) (A) (A) (A) (A) (A)
                 (A) (A) (A) (A) (A) (A) (A) (A) (A) (A) (A) (A)
                 (A) (A) (A) (A) (A) (A) (A) (A) (A) (A) (A) (A)
                 (A) (A) (A) (A) (A) (A) (A) (A) (A) (A) (A) (A)
                 (A) (A) (A) (A) (A) (A) (A) (A) (A) (A) (A) (A)
                 (A) (A) (A) (A) (A) (A) (A) (A) (A) (A) (A) (A)
                 (A) (A) (A) (A) (A) (A) (A) (A) (A) (A) (A) (A)
                 (A) (A) (A) (A) (A) (A) (A) (A) (A) (A) (A) (A)
                 (A) (A) (A) (A) (A) (A) (A) (A) (A) (A) (A) (A)
                 (A) (A) (A) (A) (A) (A) (A) (A) (A) (A) (A) (A)
                 (A) (A) (A) (A) (A) (A) (A) (A) (A) (A) (A) (A)
                 (A) (A) (A) (A) (A) (A) (A) (A) (A) (A) (A) (A)
                 (A) (A) (A) (A) (A) (A) (A) (A) (A) (A) (A) (A)
                 (A) (A) (A) (A) (A) (A) (A) (A) (A) (A) (A) (A)
                 (A) (A) (A) (A) (A) (A) (A) (A) (A) (A) (A) (A)
                 (A) (A) (A) (A) (A) (A) (A) (A) (A) (A)
 The electronic state is 1-A.
 Alpha  occ. eigenvalues --  -77.19960 -77.19617 -19.25041 -10.29383 -10.29298
 Alpha  occ. eigenvalues --  -10.26887 -10.24741 -10.24616 -10.24201 -10.24080
 Alpha  occ. eigenvalues --  -10.24049 -10.24014 -10.23864 -10.23710 -10.23701
 Alpha  occ. eigenvalues --  -10.23632 -10.23601 -10.23560 -10.23525 -10.23424
 Alpha  occ. eigenvalues --  -10.23383 -10.23364 -10.23285 -10.23274 -10.23160
 Alpha  occ. eigenvalues --  -10.23133 -10.23100 -10.23045 -10.22975 -10.22831
 Alpha  occ. eigenvalues --  -10.22656 -10.22566 -10.22505 -10.22472 -10.22425
 Alpha  occ. eigenvalues --  -10.22407 -10.22401 -10.22351 -10.22333 -10.22297
 Alpha  occ. eigenvalues --  -10.22247 -10.22176  -6.59490  -6.59174  -4.73100
 Alpha  occ. eigenvalues --   -4.73065  -4.72789  -4.72740  -4.72609  -4.72295
 Alpha  occ. eigenvalues --   -1.12098  -0.89363  -0.89095  -0.88111  -0.87801
 Alpha  occ. eigenvalues --   -0.87049  -0.86877  -0.84514  -0.79624  -0.78781
 Alpha  occ. eigenvalues --   -0.78211  -0.77010  -0.76883  -0.76589  -0.76263
 Alpha  occ. eigenvalues --   -0.76016  -0.75788  -0.75739  -0.75507  -0.74632
 Alpha  occ. eigenvalues --   -0.71574  -0.67466  -0.66599  -0.65329  -0.65140
 Alpha  occ. eigenvalues --   -0.62408  -0.62220  -0.61910  -0.61662  -0.61014
 Alpha  occ. eigenvalues --   -0.60908  -0.60823  -0.60419  -0.58066  -0.57336
 Alpha  occ. eigenvalues --   -0.56312  -0.55818  -0.52884  -0.52659  -0.51848
 Alpha  occ. eigenvalues --   -0.51241  -0.50643  -0.49665  -0.49045  -0.47819
 Alpha  occ. eigenvalues --   -0.47441  -0.46775  -0.46567  -0.46481  -0.46355
 Alpha  occ. eigenvalues --   -0.46278  -0.45765  -0.45674  -0.45480  -0.45322
 Alpha  occ. eigenvalues --   -0.45156  -0.43522  -0.43207  -0.42875  -0.42767
 Alpha  occ. eigenvalues --   -0.42651  -0.42500  -0.41968  -0.41545  -0.41213
 Alpha  occ. eigenvalues --   -0.40411  -0.40150  -0.39712  -0.39410  -0.38970
 Alpha  occ. eigenvalues --   -0.38504  -0.38395  -0.38239  -0.37953  -0.37580
 Alpha  occ. eigenvalues --   -0.36951  -0.36228  -0.35964  -0.35710  -0.35455
 Alpha  occ. eigenvalues --   -0.35292  -0.35126  -0.34795  -0.34567  -0.33440
 Alpha  occ. eigenvalues --   -0.33161  -0.32863  -0.32010  -0.29295  -0.27956
 Alpha  occ. eigenvalues --   -0.27461  -0.27163  -0.26988  -0.26622  -0.26370
 Alpha  occ. eigenvalues --   -0.25880  -0.25808  -0.25519  -0.25299  -0.24154
 Alpha  occ. eigenvalues --   -0.22117  -0.19759
 Alpha virt. eigenvalues --   -0.03590  -0.03019  -0.02305  -0.02095  -0.01772
 Alpha virt. eigenvalues --   -0.01674  -0.01194  -0.00742  -0.00489  -0.00121
 Alpha virt. eigenvalues --    0.00280   0.00512   0.03786   0.04647   0.05253
 Alpha virt. eigenvalues --    0.05551   0.06213   0.06315   0.06514   0.07373
 Alpha virt. eigenvalues --    0.07531   0.07747   0.08055   0.08394   0.08667
 Alpha virt. eigenvalues --    0.08917   0.09276   0.09549   0.10014   0.10187
 Alpha virt. eigenvalues --    0.10335   0.10570   0.10756   0.10843   0.11204
 Alpha virt. eigenvalues --    0.11394   0.11598   0.11987   0.12130   0.12338
 Alpha virt. eigenvalues --    0.12576   0.12916   0.13106   0.13542   0.13572
 Alpha virt. eigenvalues --    0.13853   0.13906   0.14240   0.14566   0.14882
 Alpha virt. eigenvalues --    0.15318   0.15464   0.15697   0.15996   0.16216
 Alpha virt. eigenvalues --    0.16719   0.16897   0.17015   0.17720   0.17942
 Alpha virt. eigenvalues --    0.18430   0.18704   0.19022   0.19131   0.19681
 Alpha virt. eigenvalues --    0.19981   0.20429   0.20564   0.20817   0.21042
 Alpha virt. eigenvalues --    0.21460   0.21602   0.21783   0.22226   0.22387
 Alpha virt. eigenvalues --    0.22515   0.22819   0.23000   0.23133   0.23396
 Alpha virt. eigenvalues --    0.23583   0.23744   0.23852   0.24138   0.24442
 Alpha virt. eigenvalues --    0.24487   0.24870   0.25181   0.25329   0.25591
 Alpha virt. eigenvalues --    0.25769   0.26108   0.26183   0.26417   0.26605
 Alpha virt. eigenvalues --    0.26869   0.27103   0.27311   0.27661   0.27682
 Alpha virt. eigenvalues --    0.28168   0.28267   0.28666   0.28739   0.28830
 Alpha virt. eigenvalues --    0.29401   0.29570   0.29884   0.30106   0.30550
 Alpha virt. eigenvalues --    0.30688   0.31193   0.31285   0.31543   0.31779
 Alpha virt. eigenvalues --    0.31960   0.32273   0.32480   0.32589   0.33255
 Alpha virt. eigenvalues --    0.33571   0.33663   0.33710   0.34266   0.34757
 Alpha virt. eigenvalues --    0.34856   0.35026   0.35302   0.35524   0.35617
 Alpha virt. eigenvalues --    0.35918   0.36018   0.36238   0.36465   0.37078
 Alpha virt. eigenvalues --    0.37413   0.37663   0.37800   0.38050   0.38240
 Alpha virt. eigenvalues --    0.38663   0.38837   0.39113   0.39219   0.39331
 Alpha virt. eigenvalues --    0.39672   0.39835   0.39920   0.40216   0.40360
 Alpha virt. eigenvalues --    0.40371   0.40588   0.40937   0.40975   0.41211
 Alpha virt. eigenvalues --    0.41665   0.41832   0.41886   0.42425   0.42587
 Alpha virt. eigenvalues --    0.42614   0.42797   0.43136   0.43326   0.43507
 Alpha virt. eigenvalues --    0.43559   0.43589   0.43804   0.44020   0.44111
 Alpha virt. eigenvalues --    0.44422   0.44554   0.44766   0.44985   0.45147
 Alpha virt. eigenvalues --    0.45212   0.45355   0.45518   0.45929   0.46164
 Alpha virt. eigenvalues --    0.46224   0.46465   0.46766   0.46912   0.47282
 Alpha virt. eigenvalues --    0.47379   0.47646   0.47808   0.48350   0.48386
 Alpha virt. eigenvalues --    0.48622   0.48972   0.49117   0.49535   0.50011
 Alpha virt. eigenvalues --    0.50132   0.50352   0.50386   0.50585   0.50816
 Alpha virt. eigenvalues --    0.50837   0.51060   0.51321   0.51372   0.51899
 Alpha virt. eigenvalues --    0.52069   0.52507   0.52671   0.52809   0.52837
 Alpha virt. eigenvalues --    0.53285   0.53470   0.53905   0.53948   0.54587
 Alpha virt. eigenvalues --    0.54724   0.55090   0.55197   0.55541   0.56146
 Alpha virt. eigenvalues --    0.56264   0.56599   0.56966   0.57356   0.57645
 Alpha virt. eigenvalues --    0.58161   0.58451   0.58631   0.58884   0.59518
 Alpha virt. eigenvalues --    0.59537   0.59968   0.60248   0.60788   0.61242
 Alpha virt. eigenvalues --    0.61668   0.62060   0.62578   0.62904   0.63425
 Alpha virt. eigenvalues --    0.63508   0.63609   0.63826   0.64568   0.64629
 Alpha virt. eigenvalues --    0.65224   0.65684   0.65821   0.66247   0.66403
 Alpha virt. eigenvalues --    0.66741   0.67309   0.67634   0.67844   0.68030
 Alpha virt. eigenvalues --    0.68167   0.68573   0.68770   0.69096   0.69466
 Alpha virt. eigenvalues --    0.69852   0.70226   0.70343   0.70614   0.70753
 Alpha virt. eigenvalues --    0.70933   0.71146   0.71224   0.71565   0.72017
 Alpha virt. eigenvalues --    0.72285   0.72623   0.73077   0.73192   0.73590
 Alpha virt. eigenvalues --    0.73829   0.74097   0.74373   0.74691   0.74956
 Alpha virt. eigenvalues --    0.75166   0.75423   0.75737   0.75843   0.76449
 Alpha virt. eigenvalues --    0.76643   0.77086   0.77506   0.77554   0.78120
 Alpha virt. eigenvalues --    0.78353   0.78667   0.78988   0.79287   0.79403
 Alpha virt. eigenvalues --    0.79840   0.79984   0.80472   0.80651   0.80911
 Alpha virt. eigenvalues --    0.81440   0.81620   0.81952   0.82220   0.82712
 Alpha virt. eigenvalues --    0.82896   0.83124   0.83386   0.84020   0.84438
 Alpha virt. eigenvalues --    0.84715   0.85108   0.85422   0.85811   0.85847
 Alpha virt. eigenvalues --    0.86017   0.86219   0.86787   0.87560   0.87957
 Alpha virt. eigenvalues --    0.88149   0.88191   0.89114   0.89379   0.89812
 Alpha virt. eigenvalues --    0.89998   0.90448   0.90492   0.91169   0.91329
 Alpha virt. eigenvalues --    0.91580   0.91953   0.92257   0.92453   0.92808
 Alpha virt. eigenvalues --    0.93026   0.93339   0.93718   0.94261   0.94491
 Alpha virt. eigenvalues --    0.94622   0.94825   0.95648   0.95998   0.96604
 Alpha virt. eigenvalues --    0.96937   0.97172   0.97542   0.97814   0.98287
 Alpha virt. eigenvalues --    0.98925   0.99079   0.99621   1.00155   1.00427
 Alpha virt. eigenvalues --    1.00814   1.01452   1.01640   1.01906   1.02542
 Alpha virt. eigenvalues --    1.02848   1.03424   1.03854   1.04341   1.05138
 Alpha virt. eigenvalues --    1.05440   1.06360   1.06557   1.07469   1.07633
 Alpha virt. eigenvalues --    1.08016   1.08318   1.08855   1.09081   1.09495
 Alpha virt. eigenvalues --    1.09901   1.10092   1.10389   1.10806   1.11240
 Alpha virt. eigenvalues --    1.11613   1.11906   1.12082   1.12470   1.12801
 Alpha virt. eigenvalues --    1.13152   1.13568   1.13810   1.14373   1.14422
 Alpha virt. eigenvalues --    1.14973   1.15415   1.15881   1.16581   1.16811
 Alpha virt. eigenvalues --    1.17400   1.17694   1.17864   1.18292   1.18498
 Alpha virt. eigenvalues --    1.18781   1.19326   1.19651   1.19852   1.20083
 Alpha virt. eigenvalues --    1.20557   1.20959   1.21571   1.22041   1.22277
 Alpha virt. eigenvalues --    1.22543   1.22963   1.23221   1.23836   1.24067
 Alpha virt. eigenvalues --    1.24422   1.24518   1.24764   1.24896   1.25215
 Alpha virt. eigenvalues --    1.25600   1.25940   1.26547   1.26873   1.27041
 Alpha virt. eigenvalues --    1.27711   1.28113   1.28448   1.28676   1.29038
 Alpha virt. eigenvalues --    1.29300   1.29387   1.29673   1.29983   1.30438
 Alpha virt. eigenvalues --    1.30629   1.30756   1.31334   1.31494   1.32062
 Alpha virt. eigenvalues --    1.32339   1.32484   1.32762   1.33280   1.33483
 Alpha virt. eigenvalues --    1.34234   1.34684   1.35229   1.35480   1.35669
 Alpha virt. eigenvalues --    1.36218   1.36672   1.36856   1.37216   1.37788
 Alpha virt. eigenvalues --    1.37973   1.38658   1.39434   1.39855   1.40224
 Alpha virt. eigenvalues --    1.40757   1.41083   1.41472   1.42404   1.42579
 Alpha virt. eigenvalues --    1.42790   1.42976   1.43476   1.44185   1.44386
 Alpha virt. eigenvalues --    1.45043   1.45192   1.45476   1.45869   1.46011
 Alpha virt. eigenvalues --    1.46550   1.47302   1.47734   1.48068   1.48658
 Alpha virt. eigenvalues --    1.48963   1.49562   1.49683   1.50006   1.50584
 Alpha virt. eigenvalues --    1.51018   1.51087   1.51536   1.51704   1.51872
 Alpha virt. eigenvalues --    1.52135   1.53151   1.53449   1.54075   1.54432
 Alpha virt. eigenvalues --    1.54670   1.54882   1.55319   1.55440   1.55858
 Alpha virt. eigenvalues --    1.56241   1.56554   1.56925   1.57433   1.57839
 Alpha virt. eigenvalues --    1.57851   1.58272   1.58786   1.59031   1.59743
 Alpha virt. eigenvalues --    1.59930   1.60032   1.60392   1.60811   1.61077
 Alpha virt. eigenvalues --    1.62016   1.62304   1.62747   1.62939   1.63080
 Alpha virt. eigenvalues --    1.63491   1.63537   1.64037   1.64201   1.64671
 Alpha virt. eigenvalues --    1.64879   1.65072   1.65396   1.65803   1.66106
 Alpha virt. eigenvalues --    1.66556   1.66660   1.67077   1.67662   1.68013
 Alpha virt. eigenvalues --    1.68188   1.68479   1.68820   1.69243   1.69292
 Alpha virt. eigenvalues --    1.69641   1.69801   1.70261   1.70760   1.70906
 Alpha virt. eigenvalues --    1.71143   1.71463   1.71689   1.71890   1.72083
 Alpha virt. eigenvalues --    1.72358   1.72539   1.72953   1.73145   1.73612
 Alpha virt. eigenvalues --    1.73750   1.73990   1.74227   1.75178   1.75546
 Alpha virt. eigenvalues --    1.75764   1.75966   1.76022   1.76749   1.77408
 Alpha virt. eigenvalues --    1.77693   1.78111   1.78198   1.78780   1.79150
 Alpha virt. eigenvalues --    1.79308   1.80263   1.80922   1.81122   1.81461
 Alpha virt. eigenvalues --    1.81980   1.82422   1.82726   1.83092   1.83281
 Alpha virt. eigenvalues --    1.83438   1.83861   1.84392   1.84786   1.85545
 Alpha virt. eigenvalues --    1.85992   1.86209   1.86443   1.86958   1.87310
 Alpha virt. eigenvalues --    1.87861   1.88179   1.89046   1.89452   1.90142
 Alpha virt. eigenvalues --    1.90570   1.91022   1.91320   1.91633   1.92414
 Alpha virt. eigenvalues --    1.92571   1.93360   1.93537   1.93913   1.94908
 Alpha virt. eigenvalues --    1.95230   1.95921   1.96408   1.96612   1.97125
 Alpha virt. eigenvalues --    1.98024   1.98380   1.98981   1.99455   1.99663
 Alpha virt. eigenvalues --    2.00087   2.00818   2.01548   2.01889   2.02263
 Alpha virt. eigenvalues --    2.03158   2.03348   2.03495   2.04258   2.04547
 Alpha virt. eigenvalues --    2.04959   2.05756   2.06008   2.06451   2.06689
 Alpha virt. eigenvalues --    2.07209   2.08290   2.08765   2.09212   2.09416
 Alpha virt. eigenvalues --    2.09782   2.09998   2.10300   2.11221   2.11363
 Alpha virt. eigenvalues --    2.11773   2.12356   2.12793   2.13138   2.13590
 Alpha virt. eigenvalues --    2.13776   2.14130   2.14369   2.14731   2.15744
 Alpha virt. eigenvalues --    2.16010   2.16539   2.16660   2.17023   2.17658
 Alpha virt. eigenvalues --    2.17859   2.18180   2.18600   2.18955   2.19200
 Alpha virt. eigenvalues --    2.19658   2.19852   2.20258   2.20713   2.20943
 Alpha virt. eigenvalues --    2.21259   2.21949   2.22349   2.22572   2.22783
 Alpha virt. eigenvalues --    2.23459   2.24384   2.24558   2.24998   2.25514
 Alpha virt. eigenvalues --    2.25807   2.25959   2.26616   2.26685   2.27978
 Alpha virt. eigenvalues --    2.28145   2.28411   2.29135   2.30170   2.30589
 Alpha virt. eigenvalues --    2.30907   2.31779   2.32281   2.33010   2.33621
 Alpha virt. eigenvalues --    2.34130   2.34802   2.35398   2.36661   2.37942
 Alpha virt. eigenvalues --    2.38455   2.38578   2.38832   2.39950   2.40378
 Alpha virt. eigenvalues --    2.40934   2.41434   2.41574   2.42321   2.42987
 Alpha virt. eigenvalues --    2.43497   2.43762   2.44088   2.44453   2.44789
 Alpha virt. eigenvalues --    2.45419   2.45612   2.45904   2.46191   2.46761
 Alpha virt. eigenvalues --    2.47861   2.48109   2.48709   2.48923   2.49335
 Alpha virt. eigenvalues --    2.49970   2.50163   2.50566   2.51034   2.52102
 Alpha virt. eigenvalues --    2.52841   2.53238   2.53683   2.54100   2.54723
 Alpha virt. eigenvalues --    2.55246   2.55667   2.55975   2.56037   2.56317
 Alpha virt. eigenvalues --    2.57114   2.57469   2.58206   2.58956   2.59254
 Alpha virt. eigenvalues --    2.59433   2.59818   2.60136   2.60457   2.60886
 Alpha virt. eigenvalues --    2.60941   2.61179   2.61825   2.62058   2.62557
 Alpha virt. eigenvalues --    2.62592   2.63178   2.63599   2.63736   2.63911
 Alpha virt. eigenvalues --    2.64211   2.64483   2.64968   2.65355   2.65499
 Alpha virt. eigenvalues --    2.65708   2.65855   2.66013   2.66246   2.66836
 Alpha virt. eigenvalues --    2.67030   2.67382   2.67851   2.67924   2.68159
 Alpha virt. eigenvalues --    2.68393   2.68617   2.68801   2.68874   2.69345
 Alpha virt. eigenvalues --    2.69737   2.69929   2.70692   2.71031   2.71115
 Alpha virt. eigenvalues --    2.71757   2.72012   2.72212   2.72478   2.72647
 Alpha virt. eigenvalues --    2.72930   2.73158   2.73380   2.73661   2.74250
 Alpha virt. eigenvalues --    2.74565   2.74692   2.74979   2.75352   2.75714
 Alpha virt. eigenvalues --    2.76331   2.76646   2.76983   2.77204   2.77554
 Alpha virt. eigenvalues --    2.77957   2.78058   2.78336   2.78524   2.78691
 Alpha virt. eigenvalues --    2.79317   2.79517   2.79783   2.80210   2.80426
 Alpha virt. eigenvalues --    2.80729   2.80891   2.81356   2.81899   2.82051
 Alpha virt. eigenvalues --    2.82472   2.82839   2.83125   2.83235   2.83684
 Alpha virt. eigenvalues --    2.84036   2.84370   2.84663   2.84899   2.85378
 Alpha virt. eigenvalues --    2.85807   2.86069   2.86331   2.86393   2.86787
 Alpha virt. eigenvalues --    2.86857   2.87368   2.87652   2.87784   2.88357
 Alpha virt. eigenvalues --    2.88423   2.88938   2.89363   2.89842   2.90242
 Alpha virt. eigenvalues --    2.90469   2.90698   2.91304   2.91437   2.91850
 Alpha virt. eigenvalues --    2.92333   2.92446   2.92934   2.93150   2.93287
 Alpha virt. eigenvalues --    2.93678   2.94079   2.94156   2.94755   2.95008
 Alpha virt. eigenvalues --    2.95379   2.96184   2.96241   2.96900   2.97135
 Alpha virt. eigenvalues --    2.97500   2.97840   2.98690   2.99094   2.99508
 Alpha virt. eigenvalues --    3.00083   3.00887   3.01388   3.02247   3.02747
 Alpha virt. eigenvalues --    3.03199   3.03695   3.04281   3.05451   3.05565
 Alpha virt. eigenvalues --    3.06436   3.06711   3.07236   3.07668   3.07694
 Alpha virt. eigenvalues --    3.08670   3.08959   3.09236   3.09587   3.10391
 Alpha virt. eigenvalues --    3.10542   3.10962   3.11705   3.11929   3.12299
 Alpha virt. eigenvalues --    3.12580   3.12926   3.13022   3.13299   3.13871
 Alpha virt. eigenvalues --    3.13924   3.14366   3.14738   3.15218   3.15478
 Alpha virt. eigenvalues --    3.15635   3.16105   3.16476   3.16513   3.16870
 Alpha virt. eigenvalues --    3.16987   3.17192   3.17620   3.17812   3.18311
 Alpha virt. eigenvalues --    3.18593   3.19036   3.19401   3.19843   3.19942
 Alpha virt. eigenvalues --    3.20319   3.20400   3.20928   3.21069   3.21467
 Alpha virt. eigenvalues --    3.21919   3.22043   3.22270   3.22654   3.23014
 Alpha virt. eigenvalues --    3.23495   3.23657   3.23857   3.24452   3.24645
 Alpha virt. eigenvalues --    3.25215   3.25537   3.25845   3.26071   3.26532
 Alpha virt. eigenvalues --    3.26617   3.27354   3.27569   3.27862   3.28197
 Alpha virt. eigenvalues --    3.28486   3.28744   3.29409   3.29547   3.29985
 Alpha virt. eigenvalues --    3.30358   3.30720   3.30869   3.30896   3.31428
 Alpha virt. eigenvalues --    3.31747   3.32289   3.32386   3.32640   3.33012
 Alpha virt. eigenvalues --    3.33435   3.33831   3.34451   3.34597   3.34887
 Alpha virt. eigenvalues --    3.34926   3.35172   3.35362   3.35666   3.35857
 Alpha virt. eigenvalues --    3.36302   3.36401   3.36437   3.36967   3.37480
 Alpha virt. eigenvalues --    3.37529   3.38213   3.38355   3.38574   3.38824
 Alpha virt. eigenvalues --    3.39376   3.39551   3.39782   3.39912   3.40210
 Alpha virt. eigenvalues --    3.40639   3.41168   3.41352   3.41518   3.42044
 Alpha virt. eigenvalues --    3.42375   3.42512   3.42686   3.43028   3.43299
 Alpha virt. eigenvalues --    3.43487   3.43732   3.43853   3.44446   3.44984
 Alpha virt. eigenvalues --    3.45134   3.45345   3.45836   3.46040   3.46137
 Alpha virt. eigenvalues --    3.46408   3.46854   3.47233   3.47738   3.47991
 Alpha virt. eigenvalues --    3.48058   3.48536   3.48614   3.48993   3.49474
 Alpha virt. eigenvalues --    3.49898   3.50325   3.50720   3.50762   3.51213
 Alpha virt. eigenvalues --    3.51648   3.52057   3.52455   3.52851   3.53006
 Alpha virt. eigenvalues --    3.53371   3.53474   3.53797   3.53946   3.54179
 Alpha virt. eigenvalues --    3.54518   3.54746   3.55117   3.55361   3.55424
 Alpha virt. eigenvalues --    3.55857   3.56160   3.56355   3.56537   3.57068
 Alpha virt. eigenvalues --    3.57353   3.57422   3.57697   3.58289   3.58645
 Alpha virt. eigenvalues --    3.58892   3.59313   3.59673   3.60108   3.60545
 Alpha virt. eigenvalues --    3.61075   3.61949   3.62100   3.62938   3.63215
 Alpha virt. eigenvalues --    3.63717   3.64314   3.65400   3.65447   3.66149
 Alpha virt. eigenvalues --    3.66987   3.67223   3.67776   3.68191   3.69472
 Alpha virt. eigenvalues --    3.70066   3.70405   3.71185   3.71387   3.71666
 Alpha virt. eigenvalues --    3.72018   3.72174   3.73306   3.73889   3.74293
 Alpha virt. eigenvalues --    3.74793   3.75533   3.75687   3.75861   3.76392
 Alpha virt. eigenvalues --    3.76976   3.77482   3.78035   3.78229   3.78719
 Alpha virt. eigenvalues --    3.79200   3.79775   3.80611   3.81123   3.82383
 Alpha virt. eigenvalues --    3.82765   3.83483   3.84978   3.86828   3.87261
 Alpha virt. eigenvalues --    3.88791   3.90056   3.90316   3.91681   3.92780
 Alpha virt. eigenvalues --    3.93724   3.94569   3.94966   3.95333   3.96498
 Alpha virt. eigenvalues --    3.96746   3.97271   3.97995   3.98362   3.99139
 Alpha virt. eigenvalues --    3.99299   4.00947   4.01576   4.02016   4.03035
 Alpha virt. eigenvalues --    4.03538   4.03932   4.04797   4.04976   4.05617
 Alpha virt. eigenvalues --    4.05789   4.06449   4.06880   4.07089   4.08182
 Alpha virt. eigenvalues --    4.08305   4.09363   4.09551   4.10887   4.11373
 Alpha virt. eigenvalues --    4.11892   4.12417   4.13175   4.13303   4.13711
 Alpha virt. eigenvalues --    4.14171   4.14368   4.14740   4.15123   4.15704
 Alpha virt. eigenvalues --    4.15902   4.17235   4.17569   4.18578   4.18768
 Alpha virt. eigenvalues --    4.19486   4.19592   4.19778   4.19990   4.20455
 Alpha virt. eigenvalues --    4.20860   4.20920   4.20970   4.21460   4.21875
 Alpha virt. eigenvalues --    4.22030   4.22223   4.22415   4.22674   4.22951
 Alpha virt. eigenvalues --    4.23251   4.23818   4.23917   4.24635   4.24757
 Alpha virt. eigenvalues --    4.24934   4.25194   4.25637   4.25935   4.26344
 Alpha virt. eigenvalues --    4.26961   4.27229   4.27578   4.27869   4.27987
 Alpha virt. eigenvalues --    4.28534   4.28866   4.29568   4.30379   4.31042
 Alpha virt. eigenvalues --    4.31424   4.31738   4.32061   4.32895   4.33726
 Alpha virt. eigenvalues --    4.34119   4.34729   4.35439   4.35628   4.35938
 Alpha virt. eigenvalues --    4.36941   4.37487   4.38494   4.38916   4.39642
 Alpha virt. eigenvalues --    4.40077   4.40368   4.42015   4.42578   4.43584
 Alpha virt. eigenvalues --    4.44648   4.44985   4.45466   4.46991   4.49517
 Alpha virt. eigenvalues --    4.49989   4.53366   4.55662   4.56695   4.57466
 Alpha virt. eigenvalues --    4.61273   4.61465   4.62124   4.62805   4.63257
 Alpha virt. eigenvalues --    4.63348   4.63660   4.64224   4.64375   4.65123
 Alpha virt. eigenvalues --    4.65619   4.66024   4.66455   4.67619   4.68283
 Alpha virt. eigenvalues --    4.69484   4.70699   4.71252   4.72200   4.73145
 Alpha virt. eigenvalues --    4.73406   4.73878   4.74909   4.76174   4.77270
 Alpha virt. eigenvalues --    4.79123   4.79583   4.80541   4.83696   4.84453
 Alpha virt. eigenvalues --    4.85276   4.86668   4.86969   4.88814   4.91378
 Alpha virt. eigenvalues --    4.92230   4.92310   4.93313   4.93905   4.94698
 Alpha virt. eigenvalues --    4.95024   4.95787   4.96751   4.96837   4.97755
 Alpha virt. eigenvalues --    4.98954   4.99888   5.00367   5.01214   5.05166
 Alpha virt. eigenvalues --    5.07122   5.09155   5.11657   5.12157   5.13457
 Alpha virt. eigenvalues --    5.14047   5.14663   5.14989   5.15207   5.15452
 Alpha virt. eigenvalues --    5.15860   5.16169   5.18315   5.22190   5.23260
 Alpha virt. eigenvalues --    5.26523   5.27734   5.29182   5.30567   5.34470
 Alpha virt. eigenvalues --    5.34795   5.35348   5.35564   5.36223   5.38128
 Alpha virt. eigenvalues --    5.40375   5.40805   5.41999   5.43470   5.46024
 Alpha virt. eigenvalues --    5.46775   5.49302   5.52235   5.57650   5.58536
 Alpha virt. eigenvalues --    5.59110   5.59403   5.59887   5.61296   5.63441
 Alpha virt. eigenvalues --    5.74700   6.04548   6.09654   6.22672   6.39527
 Alpha virt. eigenvalues --    6.56399   6.87101   6.93552   7.09887   7.41046
 Alpha virt. eigenvalues --    7.49111   7.81461   7.87539   8.00399   8.04000
 Alpha virt. eigenvalues --    8.09177   8.11080  15.98446  16.03810  22.14660
 Alpha virt. eigenvalues --   22.16696  22.26655  22.39062  22.45309  22.48443
 Alpha virt. eigenvalues --   22.51131  22.55912  22.61975  22.62862  22.63020
 Alpha virt. eigenvalues --   22.63738  22.66369  22.68073  22.69101  22.70627
 Alpha virt. eigenvalues --   22.71647  22.73246  22.75553  22.76115  22.76853
 Alpha virt. eigenvalues --   22.77932  22.80126  22.82998  22.83733  22.85440
 Alpha virt. eigenvalues --   22.86828  22.90231  22.97055  22.98004  23.02488
 Alpha virt. eigenvalues --   23.04667  23.07815  23.13558  23.17166  23.18359
 Alpha virt. eigenvalues --   23.20116  23.42822  23.55343  44.64747
          Condensed to atoms (all electrons):
 Mulliken charges:
               1
     1  P    0.115143
     2  C   -0.095726
     3  C   -0.144503
     4  C   -0.150887
     5  C   -0.182204
     6  C   -0.002720
     7  C    0.122373
     8  O   -0.236139
     9  C    0.306160
    10  C   -0.446256
    11  C   -0.404712
    12  C   -0.066575
    13  C   -0.022733
    14  C   -0.256260
    15  C   -0.076279
    16  C   -0.139479
    17  C   -0.056548
    18  C    0.097449
    19  C   -0.210610
    20  C   -0.099584
    21  C   -0.146574
    22  C   -0.118518
    23  C   -0.216711
    24  H    0.153105
    25  H    0.117596
    26  H    0.115208
    27  H    0.150072
    28  H    0.133798
    29  H    0.151939
    30  H    0.126054
    31  H    0.177087
    32  H    0.120285
    33  H    0.119250
    34  H    0.131252
    35  H    0.128398
    36  H    0.107269
    37  H    0.107473
    38  H    0.105306
    39  H    0.124706
    40  P    0.073676
    41  C   -0.155564
    42  C   -0.171296
    43  C   -0.163453
    44  C   -0.173307
    45  C   -0.025434
    46  C    0.240034
    47  C    0.052567
    48  C   -0.087614
    49  C   -0.146629
    50  C   -0.126073
    51  C   -0.118954
    52  C   -0.175805
    53  C    0.087465
    54  C   -0.166128
    55  C   -0.108721
    56  C   -0.156851
    57  C   -0.122225
    58  C   -0.191121
    59  H    0.165680
    60  H    0.116800
    61  H    0.114734
    62  H    0.133119
    63  H    0.127532
    64  H    0.150332
    65  H    0.119536
    66  H    0.150976
    67  H    0.107710
    68  H    0.114573
    69  H    0.117038
    70  H    0.120368
    71  H    0.114323
    72  H    0.114508
    73  H    0.113376
    74  H    0.117923
 Sum of Mulliken charges =  -0.00000
 Mulliken charges with hydrogens summed into heavy atoms:
               1
     1  P    0.115143
     2  C   -0.095726
     3  C    0.008603
     4  C   -0.035679
     5  C   -0.064608
     6  C   -0.002720
     7  C    0.122373
     8  O   -0.236139
     9  C    0.306160
    10  C   -0.029268
    11  C    0.000813
    12  C   -0.066575
    13  C    0.105666
    14  C   -0.148991
    15  C    0.031194
    16  C   -0.034172
    17  C    0.068158
    18  C    0.097449
    19  C   -0.033524
    20  C    0.020700
    21  C   -0.028651
    22  C    0.000732
    23  C   -0.085459
    40  P    0.073676
    41  C   -0.155564
    42  C   -0.005616
    43  C   -0.048719
    44  C   -0.056507
    45  C   -0.025434
    46  C    0.240034
    47  C    0.052567
    48  C    0.063361
    49  C   -0.038919
    50  C   -0.011500
    51  C   -0.001916
    52  C   -0.055437
    53  C    0.087465
    54  C   -0.015796
    55  C    0.005787
    56  C   -0.043475
    57  C   -0.007903
    58  C   -0.071585
 Electronic spatial extent (au):  <R**2>=          20326.3317
 Charge=             -0.0000 electrons
 Dipole moment (field-independent basis, Debye):
    X=             -0.7731    Y=              0.9871    Z=              2.4329  Tot=              2.7370
 Quadrupole moment (field-independent basis, Debye-Ang):
   XX=           -244.9144   YY=           -231.0732   ZZ=           -252.9449
   XY=              4.8592   XZ=              3.3075   YZ=              2.8137
 Traceless Quadrupole moment (field-independent basis, Debye-Ang):
   XX=             -1.9369   YY=             11.9043   ZZ=             -9.9674
   XY=              4.8592   XZ=              3.3075   YZ=              2.8137
 Octapole moment (field-independent basis, Debye-Ang**2):
  XXX=            -35.3181  YYY=             33.0087  ZZZ=             32.1418  XYY=            -21.8436
  XXY=            -17.0391  XXZ=            -15.6007  XZZ=             16.4363  YZZ=            -17.5149
  YYZ=             25.2673  XYZ=            -29.1088
 Hexadecapole moment (field-independent basis, Debye-Ang**3):
 XXXX=         -12904.8873 YYYY=         -10006.9432 ZZZZ=          -4053.7788 XXXY=            118.4269
 XXXZ=           -132.9262 YYYX=              4.5061 YYYZ=             46.5865 ZZZX=             69.9978
 ZZZY=            -56.9607 XXYY=          -3906.3063 XXZZ=          -2981.5715 YYZZ=          -2367.5261
 XXYZ=            110.9725 YYXZ=             95.2335 ZZXY=            152.0063
 N-N= 5.349662595274D+03 E-N=-1.599174667345D+04  KE= 2.251118456002D+03
 1\1\GINC-NC082\SP\RPBE1PBE\def2TZVP\C39H32O1P2\MACKK4\06-Dec-2021\0\\#
  PBE1PBE/def2TZVP int=(grid=ultrafine) empiricaldispersion=GD3BJ nmr=g
 iao\\XantPhos_1 title\\0,1\P,0,-1.5263561442,1.8432700648,-3.409196920
 6\C,0,-1.9126776092,2.8116763843,-1.8831763317\C,0,-3.1369393758,3.414
 0648787,-1.5482613039\C,0,-3.4004852917,3.7537222203,-0.2121505232\C,0
 ,-2.485895332,3.4480000649,0.810902864\C,0,-1.2363397861,2.8829607733,
 0.5054095086\C,0,-0.9730234844,2.6592219757,-0.8519541334\O,0,0.253309
 5906,2.1445531924,-1.2232051679\C,0,-0.1417941282,2.455158404,1.500201
 242\C,0,-0.7121226574,2.2360346741,2.9096381183\C,0,0.9407515192,3.571
 3182068,1.5485182864\C,0,-2.1708245781,0.175847853,-2.9049982602\C,0,-
 2.3261021743,-0.2232501038,-1.564775334\C,0,-2.8290759736,-1.496385539
 4,-1.2575737155\C,0,-3.1890736876,-2.3802184335,-2.2816001963\C,0,-3.0
 283357652,-1.9927401348,-3.6206153207\C,0,-2.5164696169,-0.7296607288,
 -3.9312995681\C,0,-2.7770888507,2.272728477,-4.6885333437\C,0,-4.14423
 30218,2.0340194898,-4.4257163454\C,0,-4.7152841342,2.8033932651,-6.656
 4659115\C,0,-5.1079579452,2.3128053501,-5.4022408092\C,0,-3.3568914739
 ,3.011384508,-6.9304946969\C,0,-2.3869611724,2.7514528123,-5.952268636
 5\H,0,-3.8895237666,3.589785299,-2.3218813234\H,0,-2.757279964,3.65193
 35397,1.8509278582\H,0,-4.3537748936,4.2260823655,0.0439593807\H,0,-1.
 4833243126,1.4473641647,2.9201566688\H,0,-1.1590324156,3.1673976483,3.
 2941328927\H,0,1.3631855584,3.7610506874,0.5487709788\H,0,0.4961357558
 ,4.5107828637,1.9189078264\H,0,-4.4527957328,1.6055230138,-3.466829486
 4\H,0,-5.4691021795,3.0139518876,-7.4222481734\H,0,-3.043256361,3.3835
 747496,-7.9110043647\H,0,-1.3292210266,2.9407946875,-6.1518583029\H,0,
 -2.0836873325,0.4622805794,-0.7487808945\H,0,-2.95102109,-1.7870766275
 ,-0.2088133613\H,0,-3.5904303656,-3.3698661897,-2.0400910447\H,0,-3.29
 27256448,-2.6811769423,-4.4290662821\H,0,-2.3989860183,-0.4360177017,-
 4.9787586828\P,0,1.5111210755,0.0585384326,-2.9691879678\C,0,1.3445180
 221,0.046815643,-1.1180736929\C,0,1.8796642079,-0.9817855915,-0.314295
 9758\C,0,1.6940424455,-0.960424234,1.0739900148\C,0,1.0087412542,0.098
 6618633,1.69663541\C,0,0.5188345469,1.175270108,0.9432285996\C,0,0.712
 3488774,1.106817361,-0.4487227183\C,0,0.6999537147,-1.4610775782,-3.60
 49273085\C,0,0.3165859477,-2.5576811998,-2.8156418262\C,0,-0.176285106
 2,-3.7189901238,-3.4267443817\C,0,-0.2825444896,-3.7955327735,-4.82230
 20607\C,0,0.0834534517,-2.6953424086,-5.6127473543\C,0,0.5646623788,-1
 .5278608234,-5.0083208449\C,0,3.2997184423,-0.367395218,-3.09098777\C,
 0,3.7442740528,-1.5817287352,-3.6416818702\C,0,6.0394419604,-0.9911755
 452,-3.1008114903\C,0,5.1138059009,-1.8888541058,-3.6456453471\C,0,5.5
 963879514,0.223354899,-2.5533805335\C,0,4.2351289618,0.5399063101,-2.5
 525298576\H,0,2.4462359108,-1.7932896781,-0.7820104487\H,0,0.883370059
 8,0.0880968057,2.7834855034\H,0,2.0996960053,-1.7725557809,1.684952019
 3\H,0,0.088429151,1.9543299231,3.6132321508\H,0,1.7610894526,3.2755183
 061,2.2247476923\H,0,3.0284267324,-2.2905997647,-4.066351997\H,0,3.896
 2274718,1.4994728784,-2.1521960085\H,0,0.3833636225,-2.5018662901,-1.7
 258572702\H,0,-0.483966607,-4.566274642,-2.8051287864\H,0,-0.660669266
 ,-4.7084105514,-5.2940250591\H,0,-0.0088487338,-2.7436220884,-6.702635
 3642\H,0,0.8454814765,-0.6593352242,-5.6164341273\H,0,6.3166342971,0.9
 360097669,-2.1391555735\H,0,7.1073581303,-1.2327440714,-3.1065405172\H
 ,0,5.4522474649,-2.8361001297,-4.0782234276\H,0,-6.1662690403,2.133513
 3689,-5.185990303\\Version=ES64L-G09RevE.01\State=1-A\HF=-2261.8873768
 \RMSD=6.562e-09\Dipole=-0.69205,-0.4153681,0.7127922\Quadrupole=-4.487
 741,-3.9312117,8.4189527,-2.1041282,4.375817,3.7846764\PG=C01 [X(C39H3
 2O1P2)]\\@


 WE HAVE LEARNED THAT NOTHING IS SIMPLE AND
 RATIONAL EXCEPT WHAT WE OURSELVES HAVE INVENTED;
 THAT GOD THINKS IN TERMS NEITHER OF EUCLID OR RIEMANN; THAT SCIENCE HAS "EXPLAINED" NOTHING;
 THAT THE MORE WE KNOW THE MORE FANTASTIC THE WORLD BECOMES
 AND THE PROFOUNDER THE SURROUNDING DARKNESS.
   --  ALDOUS HUXLEY
 Job cpu time:       1 days  3 hours 41 minutes 17.9 seconds.
 File lengths (MBytes):  RWF=   1320 Int=      0 D2E=      0 Chk=    168 Scr=      1
 Normal termination of Gaussian 09 at Mon Dec  6 02:44:54 2021.
 Initial command:
 /gstore/apps/gaussian/g09.e01-foss-2017a/g09/l1.exe "/local/22791532/Gau-21494.inp" -scrdir="/local/22791532/"
 Entering Link 1 = /gstore/apps/gaussian/g09.e01-foss-2017a/g09/l1.exe PID=     23579.
  
 Copyright (c) 1988,1990,1992,1993,1995,1998,2003,2009,2015,
            Gaussian, Inc.  All Rights Reserved.
  
 This is part of the Gaussian(R) 09 program.  It is based on
 the Gaussian(R) 03 system (copyright 2003, Gaussian, Inc.),
 the Gaussian(R) 98 system (copyright 1998, Gaussian, Inc.),
 the Gaussian(R) 94 system (copyright 1995, Gaussian, Inc.),
 the Gaussian 92(TM) system (copyright 1992, Gaussian, Inc.),
 the Gaussian 90(TM) system (copyright 1990, Gaussian, Inc.),
[...]
  1299. RY*(  23) C  57                  0.00000     3.48225   
  1300. RY*(  24) C  57                  0.00000     3.69190   
  1301. RY*(  25) C  57                  0.00000     3.68897   
  1302. RY*(  26) C  57                  0.00000     3.35544   
  1303. RY*(   1) C  58                  0.00623     1.57748   
  1304. RY*(   2) C  58                  0.00181     1.34640   
  1305. RY*(   3) C  58                  0.00138     0.81534   
  1306. RY*(   4) C  58                  0.00108     1.85656   
  1307. RY*(   5) C  58                  0.00084     1.57763   
  1308. RY*(   6) C  58                  0.00035     2.77634   
  1309. RY*(   7) C  58                  0.00021     2.14745   
  1310. RY*(   8) C  58                  0.00022     1.68926   
  1311. RY*(   9) C  58                  0.00010     1.81936   
  1312. RY*(  10) C  58                  0.00008     2.37796   
  1313. RY*(  11) C  58                  0.00005     1.81570   
  1314. RY*(  12) C  58                  0.00003     3.31662   
  1315. RY*(  13) C  58                  0.00002     2.87533   
  1316. RY*(  14) C  58                  0.00002     2.23742   
  1317. RY*(  15) C  58                  0.00002     1.94218   
  1318. RY*(  16) C  58                  0.00002     2.25018   
  1319. RY*(  17) C  58                  0.00000    21.12668   
  1320. RY*(  18) C  58                  0.00000     3.51866   
  1321. RY*(  19) C  58                  0.00000     3.19903   
  1322. RY*(  20) C  58                  0.00000     3.40905   
  1323. RY*(  21) C  58                  0.00000     3.20888   
  1324. RY*(  22) C  58                  0.00000     3.27003   
  1325. RY*(  23) C  58                  0.00000     2.81890   
  1326. RY*(  24) C  58                  0.00000     3.44261   
  1327. RY*(  25) C  58                  0.00000     3.64061   
  1328. RY*(  26) C  58                  0.00000     2.94913   
  1329. RY*(   1) H  59                  0.00108     0.75659   
  1330. RY*(   2) H  59                  0.00030     2.40028   
  1331. RY*(   3) H  59                  0.00017     2.28836   
  1332. RY*(   4) H  59                  0.00010     2.82268   
  1333. RY*(   5) H  59                  0.00002     3.14441   
  1334. RY*(   1) H  60                  0.00047     1.40119   
  1335. RY*(   2) H  60                  0.00018     1.73602   
  1336. RY*(   3) H  60                  0.00016     2.19092   
  1337. RY*(   4) H  60                  0.00011     2.77982   
  1338. RY*(   5) H  60                  0.00002     3.09846   
  1339. RY*(   1) H  61                  0.00037     1.02073   
  1340. RY*(   2) H  61                  0.00019     1.87482   
  1341. RY*(   3) H  61                  0.00012     2.16263   
  1342. RY*(   4) H  61                  0.00008     2.79975   
  1343. RY*(   5) H  61                  0.00001     3.06316   
  1344. RY*(   1) H  62                  0.00053     0.98569   
  1345. RY*(   2) H  62                  0.00013     1.79583   
  1346. RY*(   3) H  62                  0.00009     2.11565   
  1347. RY*(   4) H  62                  0.00007     2.42080   
  1348. RY*(   5) H  62                  0.00001     2.97824   
  1349. RY*(   1) H  63                  0.00049     1.06362   
  1350. RY*(   2) H  63                  0.00011     1.55545   
  1351. RY*(   3) H  63                  0.00009     2.24422   
  1352. RY*(   4) H  63                  0.00006     2.40932   
  1353. RY*(   5) H  63                  0.00000     2.97023   
  1354. RY*(   1) H  64                  0.00119     0.78241   
  1355. RY*(   2) H  64                  0.00029     2.43957   
  1356. RY*(   3) H  64                  0.00012     2.50410   
  1357. RY*(   4) H  64                  0.00011     2.45719   
  1358. RY*(   5) H  64                  0.00003     3.22690   
  1359. RY*(   1) H  65                  0.00089     0.70897   
  1360. RY*(   2) H  65                  0.00026     2.31210   
  1361. RY*(   3) H  65                  0.00014     2.21875   
  1362. RY*(   4) H  65                  0.00009     2.76802   
  1363. RY*(   5) H  65                  0.00002     3.11613   
  1364. RY*(   1) H  66                  0.00174     0.66492   
  1365. RY*(   2) H  66                  0.00026     2.34683   
  1366. RY*(   3) H  66                  0.00022     2.26464   
  1367. RY*(   4) H  66                  0.00011     2.78876   
  1368. RY*(   5) H  66                  0.00003     3.23831   
  1369. RY*(   1) H  67                  0.00041     1.15658   
  1370. RY*(   2) H  67                  0.00018     1.92394   
  1371. RY*(   3) H  67                  0.00018     2.17557   
  1372. RY*(   4) H  67                  0.00013     2.59118   
  1373. RY*(   5) H  67                  0.00001     3.04207   
  1374. RY*(   1) H  68                  0.00032     0.98373   
  1375. RY*(   2) H  68                  0.00020     1.77880   
  1376. RY*(   3) H  68                  0.00013     2.15848   
  1377. RY*(   4) H  68                  0.00008     2.75025   
  1378. RY*(   5) H  68                  0.00002     3.08523   
  1379. RY*(   1) H  69                  0.00036     1.01237   
  1380. RY*(   2) H  69                  0.00020     1.73361   
  1381. RY*(   3) H  69                  0.00013     2.15554   
  1382. RY*(   4) H  69                  0.00009     2.75301   
  1383. RY*(   5) H  69                  0.00002     3.09202   
  1384. RY*(   1) H  70                  0.00058     1.39512   
  1385. RY*(   2) H  70                  0.00023     1.55768   
  1386. RY*(   3) H  70                  0.00017     2.19166   
  1387. RY*(   4) H  70                  0.00009     2.78374   
  1388. RY*(   5) H  70                  0.00002     3.11738   
  1389. RY*(   1) H  71                  0.00038     0.94841   
  1390. RY*(   2) H  71                  0.00020     1.89732   
  1391. RY*(   3) H  71                  0.00012     2.71163   
  1392. RY*(   4) H  71                  0.00011     2.16020   
  1393. RY*(   5) H  71                  0.00002     3.10123   
  1394. RY*(   1) H  72                  0.00033     0.90041   
  1395. RY*(   2) H  72                  0.00020     1.84173   
  1396. RY*(   3) H  72                  0.00011     2.16015   
  1397. RY*(   4) H  72                  0.00008     2.75889   
  1398. RY*(   5) H  72                  0.00002     3.10513   
  1399. RY*(   1) H  73                  0.00040     0.98325   
  1400. RY*(   2) H  73                  0.00020     1.87247   
  1401. RY*(   3) H  73                  0.00012     2.55980   
  1402. RY*(   4) H  73                  0.00011     2.31715   
  1403. RY*(   5) H  73                  0.00002     3.09730   
  1404. RY*(   1) H  74                  0.00046     1.02012   
  1405. RY*(   2) H  74                  0.00018     1.80711   
  1406. RY*(   3) H  74                  0.00012     2.38302   
  1407. RY*(   4) H  74                  0.00012     2.46724   
  1408. RY*(   5) H  74                  0.00002     3.08808   
  1409. BD*(   1) P   1 - C   2          0.04251     0.22008   
  1410. BD*(   1) P   1 - C  12          0.04440     0.22387   
  1411. BD*(   1) P   1 - C  18          0.03747     0.23848   
  1412. BD*(   1) C   2 - C   3          0.02568     0.53248   
  1413. BD*(   2) C   2 - C   3          0.37188     0.02352  1418(v),1423(v),1410(v)
                                                    1469(r),208(g)
  1414. BD*(   1) C   2 - C   7          0.03232     0.51466   
  1415. BD*(   1) C   3 - C   4          0.01566     0.53717   
  1416. BD*(   1) C   3 - H  24          0.01637     0.41257   
  1417. BD*(   1) C   4 - C   5          0.01302     0.53417   
  1418. BD*(   2) C   4 - C   5          0.34812     0.02348  1413(v),1423(v),235(g)
                                                    261(g),1469(r)
  1419. BD*(   1) C   4 - H  26          0.01349     0.40339   
  1420. BD*(   1) C   5 - C   6          0.02123     0.53151   
  1421. BD*(   1) C   5 - H  25          0.01480     0.40188   
  1422. BD*(   1) C   6 - C   7          0.03965     0.52248   
  1423. BD*(   2) C   6 - C   7          0.38187     0.02655  1418(v),1413(v),1469(r)
                                                    1428(v),1476(r),1429(v)
                                                    313(g),1426(v),261(v)
  1424. BD*(   1) C   6 - C   9          0.03820     0.35882   
  1425. BD*(   1) C   7 - O   8          0.03395     0.33330   
  1426. BD*(   1) O   8 - C  46          0.03341     0.34320   
  1427. BD*(   1) C   9 - C  10          0.01872     0.33362   
  1428. BD*(   1) C   9 - C  11          0.02813     0.31182   
  1429. BD*(   1) C   9 - C  45          0.03796     0.35479   
  1430. BD*(   1) C  10 - H  27          0.00663     0.37040   
  1431. BD*(   1) C  10 - H  28          0.00701     0.36898   
  1432. BD*(   1) C  10 - H  62          0.00703     0.36877   
  1433. BD*(   1) C  11 - H  29          0.00644     0.38282   
  1434. BD*(   1) C  11 - H  30          0.00729     0.37171   
  1435. BD*(   1) C  11 - H  63          0.00729     0.37171   
  1436. BD*(   1) C  12 - C  13          0.02651     0.54099   
  1437. BD*(   2) C  12 - C  13          0.37223     0.03670  1442(v),1447(v),1480(r)
                                                    468(g),1452(r),1411(v)
                                                    1454(r),443(g),495(v)
  1438. BD*(   1) C  12 - C  17          0.02384     0.53265   
  1439. BD*(   1) C  13 - C  14          0.01661     0.55194   
  1440. BD*(   1) C  13 - H  35          0.01763     0.42862   
  1441. BD*(   1) C  14 - C  15          0.01481     0.55057   
  1442. BD*(   2) C  14 - C  15          0.33184     0.03680  1437(v),1447(v),1485(r)
                                                    521(g),495(g)
  1443. BD*(   1) C  14 - H  36          0.01383     0.41280   
  1444. BD*(   1) C  15 - C  16          0.01516     0.54773   
  1445. BD*(   1) C  15 - H  37          0.01346     0.41395   
  1446. BD*(   1) C  16 - C  17          0.01641     0.56034   
  1447. BD*(   2) C  16 - C  17          0.30710     0.04379  1442(v),1437(v),547(g)
                                                    1454(r),1480(r),1490(r)
  1448. BD*(   1) C  16 - H  38          0.01398     0.41409   
  1449. BD*(   1) C  17 - H  39          0.01620     0.42583   
  1450. BD*(   1) C  18 - C  19          0.03209     0.51717   
  1451. BD*(   1) C  18 - C  23          0.02388     0.52786   
  1452. BD*(   2) C  18 - C  23          0.35263     0.02607  1458(v),1454(v),729(g)
                                                    1437(r),1409(v),1410(v)
                                                    600(g)
  1453. BD*(   1) C  19 - C  21          0.01812     0.54557   
  1454. BD*(   2) C  19 - C  21          0.30665     0.03037  1452(v),1458(v),677(g)
                                                    1447(r),1437(r)
  1455. BD*(   1) C  19 - H  31          0.01555     0.41671   
  1456. BD*(   1) C  20 - C  21          0.01480     0.53503   
  1457. BD*(   1) C  20 - C  22          0.01464     0.53690   
  1458. BD*(   2) C  20 - C  22          0.32320     0.02524  1452(v),1454(v),651(g)
                                                    703(g)
  1459. BD*(   1) C  20 - H  32          0.01298     0.40306   
  1460. BD*(   1) C  21 - H  74          0.01429     0.40185   
  1461. BD*(   1) C  22 - C  23          0.01583     0.53832   
  1462. BD*(   1) C  22 - H  33          0.01338     0.40344   
  1463. BD*(   1) C  23 - H  34          0.01568     0.41059   
  1464. BD*(   1) P  40 - C  41          0.03811     0.22063   
  1465. BD*(   1) P  40 - C  47          0.03608     0.23853   
  1466. BD*(   1) P  40 - C  53          0.04755     0.23789   
  1467. BD*(   1) C  41 - C  42          0.02682     0.52439   
  1468. BD*(   1) C  41 - C  46          0.03511     0.52027   
  1469. BD*(   2) C  41 - C  46          0.39050     0.02313  1476(v),1471(v),1423(r)
                                                    1494(r),1413(r),1465(v)
                                                    864(g),1466(v),993(g)
                                                    1418(r),1504(r)
  1470. BD*(   1) C  42 - C  43          0.01653     0.54388   
  1471. BD*(   2) C  42 - C  43          0.31867     0.02971  1476(v),1469(v),915(g)
                                                    1494(r)
  1472. BD*(   1) C  42 - H  59          0.01542     0.41436   
  1473. BD*(   1) C  43 - C  44          0.01333     0.53502   
  1474. BD*(   1) C  43 - H  61          0.01381     0.40299   
  1475. BD*(   1) C  44 - C  45          0.02062     0.53543   
  1476. BD*(   2) C  44 - C  45          0.34780     0.03031  1471(v),1469(v),1428(v)
                                                    941(g),1423(r)
  1477. BD*(   1) C  44 - H  60          0.01491     0.40218   
  1478. BD*(   1) C  45 - C  46          0.03925     0.51623   
  1479. BD*(   1) C  47 - C  48          0.03176     0.53857   
  1480. BD*(   2) C  47 - C  48          0.35961     0.03286  1490(v),1485(v),1437(r)
                                                    1466(v),1045(g),1447(r)
                                                    1020(g)
  1481. BD*(   1) C  47 - C  52          0.02313     0.52103   
  1482. BD*(   1) C  48 - C  49          0.01712     0.54870   
  1483. BD*(   1) C  48 - H  66          0.01722     0.42817   
  1484. BD*(   1) C  49 - C  50          0.01486     0.54209   
  1485. BD*(   2) C  49 - C  50          0.33117     0.03072  1490(v),1480(v),1442(r)
                                                    1097(g),1071(g)
  1486. BD*(   1) C  49 - H  67          0.01397     0.41117   
  1487. BD*(   1) C  50 - C  51          0.01496     0.53927   
  1488. BD*(   1) C  50 - H  68          0.01331     0.40878   
  1489. BD*(   1) C  51 - C  52          0.01677     0.54677   
  1490. BD*(   2) C  51 - C  52          0.32141     0.03147  1485(v),1480(v),1123(g)
                                                    1149(g),1447(r)
  1491. BD*(   1) C  51 - H  69          0.01378     0.40802   
  1492. BD*(   1) C  52 - H  70          0.01607     0.41324   
  1493. BD*(   1) C  53 - C  54          0.02702     0.54119   
  1494. BD*(   2) C  53 - C  54          0.36543     0.03519  1499(v),1504(v),1469(r)
                                                    1201(g),1464(v),1471(r)
                                                    1305(v)
  1495. BD*(   1) C  53 - C  58          0.02236     0.53147   
  1496. BD*(   1) C  54 - C  56          0.01652     0.55022   
  1497. BD*(   1) C  54 - H  64          0.01624     0.42536   
  1498. BD*(   1) C  55 - C  56          0.01464     0.54903   
  1499. BD*(   2) C  55 - C  56          0.33026     0.03513  1494(v),1504(v),1227(g)
                                                    1253(g)
  1500. BD*(   1) C  55 - C  57          0.01479     0.54341   
  1501. BD*(   1) C  55 - H  72          0.01314     0.41151   
  1502. BD*(   1) C  56 - H  73          0.01380     0.41158   
  1503. BD*(   1) C  57 - C  58          0.01538     0.55404   
  1504. BD*(   2) C  57 - C  58          0.31251     0.03802  1494(v),1499(v),1279(g)
                                                    1305(g)
  1505. BD*(   1) C  57 - H  71          0.01346     0.41132   
  1506. BD*(   1) C  58 - H  65          0.01598     0.41200   
       -------------------------------
              Total Lewis  295.61714  ( 97.2425%)
        Valence non-Lewis    7.79508  (  2.5642%)
        Rydberg non-Lewis    0.58779  (  0.1934%)
       -------------------------------
            Total unit  1  304.00000  (100.0000%)
           Charge unit  1    0.00000
 1\1\GINC-NC082\SP\RPBE1PBE\def2TZVP\C39H32O1P2\MACKK4\06-Dec-2021\0\\#
  PBE1PBE/def2TZVP int=(grid=ultrafine) empiricaldispersion=GD3BJ pop=n
 bo guess=read geom=check\\XantPhos_1 title\\0,1\P,0,-1.5263561442,1.84
 32700648,-3.4091969206\C,0,-1.9126776092,2.8116763843,-1.8831763317\C,
 0,-3.1369393758,3.4140648787,-1.5482613039\C,0,-3.4004852917,3.7537222
 203,-0.2121505232\C,0,-2.485895332,3.4480000649,0.810902864\C,0,-1.236
 3397861,2.8829607733,0.5054095086\C,0,-0.9730234844,2.6592219757,-0.85
 19541334\O,0,0.2533095906,2.1445531924,-1.2232051679\C,0,-0.1417941282
 ,2.455158404,1.500201242\C,0,-0.7121226574,2.2360346741,2.9096381183\C
 ,0,0.9407515192,3.5713182068,1.5485182864\C,0,-2.1708245781,0.17584785
 3,-2.9049982602\C,0,-2.3261021743,-0.2232501038,-1.564775334\C,0,-2.82
 90759736,-1.4963855394,-1.2575737155\C,0,-3.1890736876,-2.3802184335,-
 2.2816001963\C,0,-3.0283357652,-1.9927401348,-3.6206153207\C,0,-2.5164
 696169,-0.7296607288,-3.9312995681\C,0,-2.7770888507,2.272728477,-4.68
 85333437\C,0,-4.1442330218,2.0340194898,-4.4257163454\C,0,-4.715284134
 2,2.8033932651,-6.6564659115\C,0,-5.1079579452,2.3128053501,-5.4022408
 092\C,0,-3.3568914739,3.011384508,-6.9304946969\C,0,-2.3869611724,2.75
 14528123,-5.9522686365\H,0,-3.8895237666,3.589785299,-2.3218813234\H,0
 ,-2.757279964,3.6519335397,1.8509278582\H,0,-4.3537748936,4.2260823655
 ,0.0439593807\H,0,-1.4833243126,1.4473641647,2.9201566688\H,0,-1.15903
 24156,3.1673976483,3.2941328927\H,0,1.3631855584,3.7610506874,0.548770
 9788\H,0,0.4961357558,4.5107828637,1.9189078264\H,0,-4.4527957328,1.60
 55230138,-3.4668294864\H,0,-5.4691021795,3.0139518876,-7.4222481734\H,
 0,-3.043256361,3.3835747496,-7.9110043647\H,0,-1.3292210266,2.94079468
 75,-6.1518583029\H,0,-2.0836873325,0.4622805794,-0.7487808945\H,0,-2.9
 5102109,-1.7870766275,-0.2088133613\H,0,-3.5904303656,-3.3698661897,-2
 .0400910447\H,0,-3.2927256448,-2.6811769423,-4.4290662821\H,0,-2.39898
 60183,-0.4360177017,-4.9787586828\P,0,1.5111210755,0.0585384326,-2.969
 1879678\C,0,1.3445180221,0.046815643,-1.1180736929\C,0,1.8796642079,-0
 .9817855915,-0.3142959758\C,0,1.6940424455,-0.960424234,1.0739900148\C
 ,0,1.0087412542,0.0986618633,1.69663541\C,0,0.5188345469,1.175270108,0
 .9432285996\C,0,0.7123488774,1.106817361,-0.4487227183\C,0,0.699953714
 7,-1.4610775782,-3.6049273085\C,0,0.3165859477,-2.5576811998,-2.815641
 8262\C,0,-0.1762851062,-3.7189901238,-3.4267443817\C,0,-0.2825444896,-
 3.7955327735,-4.8223020607\C,0,0.0834534517,-2.6953424086,-5.612747354
 3\C,0,0.5646623788,-1.5278608234,-5.0083208449\C,0,3.2997184423,-0.367
 395218,-3.09098777\C,0,3.7442740528,-1.5817287352,-3.6416818702\C,0,6.
 0394419604,-0.9911755452,-3.1008114903\C,0,5.1138059009,-1.8888541058,
 -3.6456453471\C,0,5.5963879514,0.223354899,-2.5533805335\C,0,4.2351289
 618,0.5399063101,-2.5525298576\H,0,2.4462359108,-1.7932896781,-0.78201
 04487\H,0,0.8833700598,0.0880968057,2.7834855034\H,0,2.0996960053,-1.7
 725557809,1.6849520193\H,0,0.088429151,1.9543299231,3.6132321508\H,0,1
 .7610894526,3.2755183061,2.2247476923\H,0,3.0284267324,-2.2905997647,-
 4.066351997\H,0,3.8962274718,1.4994728784,-2.1521960085\H,0,0.38336362
 25,-2.5018662901,-1.7258572702\H,0,-0.483966607,-4.566274642,-2.805128
 7864\H,0,-0.660669266,-4.7084105514,-5.2940250591\H,0,-0.0088487338,-2
 .7436220884,-6.7026353642\H,0,0.8454814765,-0.6593352242,-5.6164341273
 \H,0,6.3166342971,0.9360097669,-2.1391555735\H,0,7.1073581303,-1.23274
 40714,-3.1065405172\H,0,5.4522474649,-2.8361001297,-4.0782234276\H,0,-
 6.1662690403,2.1335133689,-5.185990303\\Version=ES64L-G09RevE.01\State
 =1-A\HF=-2261.8873768\RMSD=5.546e-09\Dipole=-0.6920498,-0.4153686,0.71
 27898\Quadrupole=-4.4877315,-3.9312141,8.4189456,-2.104138,4.3758208,3
 .7846754\PG=C01 [X(C39H32O1P2)]\\@


 WHEN A MATHEMATICIAN ENGAGED IN INVESTIGATING
 PHYSICAL ACTIONS AND RESULTS HAS ARRIVED AT HIS
 CONCLUSIONS, MAY THEY NOT BE EXPRESSED IN COMMON
 LANGUAGE AS FULLY, CLEARLY, AND DEFINITELY AS IN
 MATHEMATICAL FORMULAE?
           - LETTER FROM M. FARADAY TO J.C. MAXWELL, 1857.
 Job cpu time:       0 days  2 hours  4 minutes  2.4 seconds.
 File lengths (MBytes):  RWF=   1164 Int=      0 D2E=      0 Chk=    168 Scr=      1
 Normal termination of Gaussian 09 at Mon Dec  6 02:53:55 2021.
