 Entering Gaussian System, Link 0=g09
 Input=XantPhos_1_SPE.com
 Output=XantPhos_1_SPE.log
 Initial command:
 /gstore/apps/gaussian/g09.e01-foss-2017a/g09/l1.exe "/local/29510741/Gau-19615.inp" -scrdir="/local/29510741/"
 Entering Link 1 = /gstore/apps/gaussian/g09.e01-foss-2017a/g09/l1.exe PID=     19616.
  
 Copyright (c) 1988,1990,1992,1993,1995,1998,2003,2009,2015,
            Gaussian, Inc.  All Rights Reserved.
  
 This is part of the Gaussian(R) 09 program.  It is based on
 the Gaussian(R) 03 system (copyright 2003, Gaussian, Inc.),
 the Gaussian(R) 98 system (copyright 1998, Gaussian, Inc.),
 the Gaussian(R) 94 system (copyright 1995, Gaussian, Inc.),
 the Gaussian 92(TM) system (copyright 1992, Gaussian, Inc.),
 the Gaussian 90(TM) system (copyright 1990, Gaussian, Inc.),
 the Gaussian 88(TM) system (copyright 1988, Gaussian, Inc.),
 the Gaussian 86(TM) system (copyright 1986, Carnegie Mellon
 University), and the Gaussian 82(TM) system (copyright 1983,
 Carnegie Mellon University). Gaussian is a federally registered
 trademark of Gaussian, Inc.
  
 This software contains proprietary and confidential information,
 including trade secrets, belonging to Gaussian, Inc.
  
 This software is provided under written license and may be
 used, copied, transmitted, or stored only in accord with that
 written license.
  
 The following legend is applicable only to US Government
 contracts under FAR:
  
                    RESTRICTED RIGHTS LEGEND
  
 Use, reproduction and disclosure by the US Government is
 subject to restrictions as set forth in subparagraphs (a)
 and (c) of the Commercial Computer Software - Restricted
 Rights clause in FAR 52.227-19.
  
 Gaussian, Inc.
 340 Quinnipiac St., Bldg. 40, Wallingford CT 06492
  
  
 ---------------------------------------------------------------
 Warning -- This program may not be used in any manner that
 competes with the business of Gaussian, Inc. or will provide
 assistance to any competitor of Gaussian, Inc.  The licensee
 of this program is prohibited from giving any competitor of
 Gaussian, Inc. access to this program.  By using this program,
 the user acknowledges that Gaussian, Inc. is engaged in the
 business of creating and licensing software in the field of
 computational chemistry and represents and warrants to the
 licensee that it is not a competitor of Gaussian, Inc. and that
 it will not use this program in any manner prohibited above.
 ---------------------------------------------------------------
  

 Cite this work as:
 Gaussian 09, Revision E.01,
 M. J. Frisch, G. W. Trucks, H. B. Schlegel, G. E. Scuseria, 
 M. A. Robb, J. R. Cheeseman, G. Scalmani, V. Barone, B. Mennucci, 
 G. A. Petersson, H. Nakatsuji, M. Caricato, X. Li, H. P. Hratchian, 
 A. F. Izmaylov, J. Bloino, G. Zheng, J. L. Sonnenberg, M. Hada, 
 M. Ehara, K. Toyota, R. Fukuda, J. Hasegawa, M. Ishida, T. Nakajima, 
 Y. Honda, O. Kitao, H. Nakai, T. Vreven, J. A. Montgomery, Jr., 
 J. E. Peralta, F. Ogliaro, M. Bearpark, J. J. Heyd, E. Brothers, 
 K. N. Kudin, V. N. Staroverov, T. Keith, R. Kobayashi, J. Normand, 
 K. Raghavachari, A. Rendell, J. C. Burant, S. S. Iyengar, J. Tomasi, 
 M. Cossi, N. Rega, J. M. Millam, M. Klene, J. E. Knox, J. B. Cross, 
 V. Bakken, C. Adamo, J. Jaramillo, R. Gomperts, R. E. Stratmann, 
 O. Yazyev, A. J. Austin, R. Cammi, C. Pomelli, J. W. Ochterski, 
 R. L. Martin, K. Morokuma, V. G. Zakrzewski, G. A. Voth, 
 P. Salvador, J. J. Dannenberg, S. Dapprich, A. D. Daniels, 
 O. Farkas, J. B. Foresman, J. V. Ortiz, J. Cioslowski, 
 and D. J. Fox, Gaussian, Inc., Wallingford CT, 2013.
 
 ******************************************
 Gaussian 09:  ES64L-G09RevE.01 30-Nov-2015
                12-Feb-2022 
 ******************************************
 %nprocs=28
 Will use up to   28 processors via shared memory.
 %mem=128GB
 %chk=XantPhos_1_SPE.chk
 ----------------------------------------------------------------------
 # PBE1PBE gen pseudo=read int=(grid=ultrafine) empiricaldispersion=GD3
 BJ nmr=giao
 ----------------------------------------------------------------------
 1/38=1/1;
 2/12=2,17=6,18=5,40=1/2;
 3/5=7,11=2,16=1,17=8,25=1,30=1,74=-13,75=-5,124=41/1,2,8,3;
 4//1;
 5/5=2,38=5/2;
 8/6=1,10=90,11=11/1;
 10/13=100,45=16/2;
 6/7=2,8=2,9=2,10=2,28=1/1;
 99/9=1/99;
 ----------------
 XantPhos_1 title
 ----------------
 Symbolic Z-matrix:
 Charge =  0 Multiplicity = 1
 P                    -1.52636   1.84327  -3.4092 
 C                    -1.91268   2.81168  -1.88318 
 C                    -3.13694   3.41406  -1.54826 
 C                    -3.40049   3.75372  -0.21215 
 C                    -2.4859    3.448     0.8109 
 C                    -1.23634   2.88296   0.50541 
 C                    -0.97302   2.65922  -0.85195 
 O                     0.25331   2.14455  -1.22321 
 C                    -0.14179   2.45516   1.5002 
 C                    -0.71212   2.23603   2.90964 
 C                     0.94075   3.57132   1.54852 
 C                    -2.17082   0.17585  -2.905 
 C                    -2.3261   -0.22325  -1.56478 
 C                    -2.82908  -1.49639  -1.25757 
 C                    -3.18907  -2.38022  -2.2816 
 C                    -3.02834  -1.99274  -3.62062 
 C                    -2.51647  -0.72966  -3.9313 
 C                    -2.77709   2.27273  -4.68853 
 C                    -4.14423   2.03402  -4.42572 
 C                    -4.71528   2.80339  -6.65647 
 C                    -5.10796   2.31281  -5.40224 
 C                    -3.35689   3.01138  -6.93049 
 C                    -2.38696   2.75145  -5.95227 
 H                    -3.88952   3.58979  -2.32188 
 H                    -2.75728   3.65193   1.85093 
 H                    -4.35377   4.22608   0.04396 
 H                    -1.48332   1.44736   2.92016 
 H                    -1.15903   3.1674    3.29413 
 H                     1.36319   3.76105   0.54877 
 H                     0.49614   4.51078   1.91891 
 H                    -4.4528    1.60552  -3.46683 
 H                    -5.4691    3.01395  -7.42225 
 H                    -3.04326   3.38357  -7.911 
 H                    -1.32922   2.94079  -6.15186 
 H                    -2.08369   0.46228  -0.74878 
 H                    -2.95102  -1.78708  -0.20881 
 H                    -3.59043  -3.36987  -2.04009 
 H                    -3.29273  -2.68118  -4.42907 
 H                    -2.39899  -0.43602  -4.97876 
 P                     1.51112   0.05854  -2.96919 
 C                     1.34452   0.04682  -1.11807 
 C                     1.87966  -0.98179  -0.3143 
 C                     1.69404  -0.96042   1.07399 
 C                     1.00874   0.09866   1.69664 
 C                     0.51883   1.17527   0.94323 
 C                     0.71235   1.10682  -0.44872 
 C                     0.69995  -1.46108  -3.60493 
 C                     0.31659  -2.55768  -2.81564 
 C                    -0.17629  -3.71899  -3.42674 
 C                    -0.28254  -3.79553  -4.8223 
 C                     0.08345  -2.69534  -5.61275 
 C                     0.56466  -1.52786  -5.00832 
 C                     3.29972  -0.3674   -3.09099 
 C                     3.74427  -1.58173  -3.64168 
 C                     6.03944  -0.99118  -3.10081 
 C                     5.11381  -1.88885  -3.64565 
 C                     5.59639   0.22335  -2.55338 
 C                     4.23513   0.53991  -2.55253 
 H                     2.44624  -1.79329  -0.78201 
 H                     0.88337   0.0881    2.78349 
 H                     2.0997   -1.77256   1.68495 
 H                     0.08843   1.95433   3.61323 
 H                     1.76109   3.27552   2.22475 
 H                     3.02843  -2.2906   -4.06635 
 H                     3.89623   1.49947  -2.1522 
 H                     0.38336  -2.50187  -1.72586 
 H                    -0.48397  -4.56627  -2.80513 
 H                    -0.66067  -4.70841  -5.29403 
 H                    -0.00885  -2.74362  -6.70264 
 H                     0.84548  -0.65934  -5.61643 
 H                     6.31663   0.93601  -2.13916 
 H                     7.10736  -1.23274  -3.10654 
 H                     5.45225  -2.8361   -4.07822 
 H                    -6.16627   2.13351  -5.18599 
 Pd                    0.72841   2.01483  -3.96291 
 Cl                    2.89745   2.42283  -4.80575 
 Cl                    0.07639   4.26113  -4.46453 
 
 Stoichiometry    C39H32Cl2OP2Pd
 Framework group  C1[X(C39H32Cl2OP2Pd)]
 Deg. of freedom   225
 Full point group                 C1      NOp   1
 Largest Abelian subgroup         C1      NOp   1
 Largest concise Abelian subgroup C1      NOp   1
                         Standard orientation:                         
 ---------------------------------------------------------------------
 Center     Atomic      Atomic             Coordinates (Angstroms)
 Number     Number       Type             X           Y           Z
 ---------------------------------------------------------------------
      1         15           0       -1.807907   -0.357053   -0.284009
      2          6           0       -2.336095    1.405360   -0.459254
      3          6           0       -3.633203    1.921639   -0.301699
      4          6           0       -3.809726    3.293656   -0.064164
      5          6           0       -2.708224    4.155421    0.079480
      6          6           0       -1.400266    3.679465   -0.112085
      7          6           0       -1.277271    2.326481   -0.452873
      8          8           0       -0.021774    1.805539   -0.695670
      9          6           0       -0.090406    4.473788    0.042748
     10          6           0       -0.287008    5.726141    0.910367
     11          6           0        0.397027    4.896976   -1.372658
     12          6           0       -1.583302   -0.444989    1.557641
     13          6           0       -1.343849    0.682241    2.364860
     14          6           0       -1.193943    0.541855    3.752682
     15          6           0       -1.288817   -0.720611    4.349816
     16          6           0       -1.518213   -1.850608    3.550178
     17          6           0       -1.656404   -1.716874    2.165649
     18          6           0       -3.300842   -1.418987   -0.454036
     19          6           0       -4.372653   -1.254128    0.451050
     20          6           0       -5.553886   -3.096294   -0.600327
     21          6           0       -5.499072   -2.081235    0.366420
     22          6           0       -4.478300   -3.282070   -1.479068
     23          6           0       -3.354250   -2.447001   -1.412545
     24          1           0       -4.496390    1.251204   -0.335973
     25          1           0       -2.878391    5.202926    0.345311
     26          1           0       -4.821880    3.692373    0.054353
     27          1           0       -0.630176    5.469159    1.926763
     28          1           0       -1.027714    6.401159    0.451338
     29          1           0        0.537562    4.020235   -2.024976
     30          1           0       -0.347297    5.561445   -1.843749
     31          1           0       -4.315091   -0.496100    1.238682
     32          1           0       -6.432019   -3.747616   -0.660830
     33          1           0       -4.510340   -4.079415   -2.228405
     34          1           0       -2.526443   -2.569452   -2.115569
     35          1           0       -1.299656    1.681848    1.925092
     36          1           0       -1.016288    1.431221    4.366470
     37          1           0       -1.181101   -0.827201    5.434183
     38          1           0       -1.579528   -2.844127    4.004712
     39          1           0       -1.839100   -2.604028    1.551826
     40         15           0        1.730120   -0.539025   -0.050774
     41          6           0        1.870346    1.199703    0.590850
     42          6           0        2.913301    1.610909    1.447364
     43          6           0        2.951514    2.924967    1.931142
     44          6           0        1.980191    3.866857    1.545964
     45          6           0        0.964416    3.519321    0.643669
     46          6           0        0.952999    2.185963    0.194572
     47          6           0        1.568288   -1.650768    1.401544
     48          6           0        1.822011   -1.277588    2.731523
     49          6           0        1.792079   -2.244934    3.745600
     50          6           0        1.517162   -3.584894    3.439564
     51          6           0        1.246274   -3.957986    2.114196
     52          6           0        1.262152   -2.994865    1.098296
     53          6           0        3.485205   -0.794300   -0.550621
     54          6           0        4.320621   -1.721122    0.096357
     55          6           0        6.188262   -1.009255   -1.287207
     56          6           0        5.669943   -1.826102   -0.275486
     57          6           0        5.353596   -0.085437   -1.936017
     58          6           0        4.007079    0.019801   -1.576785
     59          1           0        3.695855    0.898098    1.726307
     60          1           0        2.039623    4.886437    1.938390
     61          1           0        3.756363    3.227330    2.608034
     62          1           0        0.653879    6.295020    0.990316
     63          1           0        1.357403    5.435373   -1.298195
     64          1           0        3.925593   -2.360895    0.890035
     65          1           0        3.352614    0.719406   -2.104153
     66          1           0        2.024003   -0.232578    2.981239
     67          1           0        1.979720   -1.945527    4.781993
     68          1           0        1.503231   -4.337143    4.235036
     69          1           0        1.018324   -5.000597    1.869842
     70          1           0        1.043526   -3.274448    0.060494
     71          1           0        5.749301    0.545782   -2.738011
     72          1           0        7.240915   -1.094301   -1.576209
     73          1           0        6.313743   -2.551918    0.232109
     74          1           0       -6.329178   -1.939712    1.066297
     75         46           0        0.037330   -0.817000   -1.626973
     76         17           0        1.659998   -1.469681   -3.215222
     77         17           0       -1.589271   -0.533733   -3.358023
 ---------------------------------------------------------------------
 Rotational constants (GHZ):      0.0765975      0.0641010      0.0558960
 General basis read from cards:  (5D, 7F)
 ======================================================================================================
                                       Pseudopotential Parameters
 ======================================================================================================
  Center     Atomic      Valence      Angular      Power
  Number     Number     Electrons     Momentum     of R      Exponent        Coefficient   SO-Coeffient
 ======================================================================================================
    1         15
                                   No pseudopotential on this center.
    2          6
                                   No pseudopotential on this center.
    3          6
                                   No pseudopotential on this center.
    4          6
                                   No pseudopotential on this center.
    5          6
                                   No pseudopotential on this center.
    6          6
                                   No pseudopotential on this center.
    7          6
                                   No pseudopotential on this center.
    8          8
                                   No pseudopotential on this center.
    9          6
                                   No pseudopotential on this center.
   10          6
                                   No pseudopotential on this center.
   11          6
                                   No pseudopotential on this center.
   12          6
                                   No pseudopotential on this center.
   13          6
                                   No pseudopotential on this center.
   14          6
                                   No pseudopotential on this center.
   15          6
                                   No pseudopotential on this center.
   16          6
                                   No pseudopotential on this center.
   17          6
                                   No pseudopotential on this center.
   18          6
                                   No pseudopotential on this center.
   19          6
                                   No pseudopotential on this center.
   20          6
                                   No pseudopotential on this center.
   21          6
                                   No pseudopotential on this center.
   22          6
                                   No pseudopotential on this center.
   23          6
                                   No pseudopotential on this center.
   24          1
                                   No pseudopotential on this center.
   25          1
                                   No pseudopotential on this center.
   26          1
                                   No pseudopotential on this center.
   27          1
                                   No pseudopotential on this center.
   28          1
                                   No pseudopotential on this center.
   29          1
                                   No pseudopotential on this center.
   30          1
                                   No pseudopotential on this center.
   31          1
                                   No pseudopotential on this center.
   32          1
                                   No pseudopotential on this center.
   33          1
                                   No pseudopotential on this center.
   34          1
                                   No pseudopotential on this center.
   35          1
                                   No pseudopotential on this center.
   36          1
                                   No pseudopotential on this center.
   37          1
                                   No pseudopotential on this center.
   38          1
                                   No pseudopotential on this center.
   39          1
                                   No pseudopotential on this center.
   40         15
                                   No pseudopotential on this center.
   41          6
                                   No pseudopotential on this center.
   42          6
                                   No pseudopotential on this center.
   43          6
                                   No pseudopotential on this center.
   44          6
                                   No pseudopotential on this center.
   45          6
                                   No pseudopotential on this center.
   46          6
                                   No pseudopotential on this center.
   47          6
                                   No pseudopotential on this center.
   48          6
                                   No pseudopotential on this center.
   49          6
                                   No pseudopotential on this center.
   50          6
                                   No pseudopotential on this center.
   51          6
                                   No pseudopotential on this center.
   52          6
                                   No pseudopotential on this center.
   53          6
                                   No pseudopotential on this center.
   54          6
                                   No pseudopotential on this center.
   55          6
                                   No pseudopotential on this center.
   56          6
                                   No pseudopotential on this center.
   57          6
                                   No pseudopotential on this center.
   58          6
                                   No pseudopotential on this center.
   59          1
                                   No pseudopotential on this center.
   60          1
                                   No pseudopotential on this center.
   61          1
                                   No pseudopotential on this center.
   62          1
                                   No pseudopotential on this center.
   63          1
                                   No pseudopotential on this center.
   64          1
                                   No pseudopotential on this center.
   65          1
                                   No pseudopotential on this center.
   66          1
                                   No pseudopotential on this center.
   67          1
                                   No pseudopotential on this center.
   68          1
                                   No pseudopotential on this center.
   69          1
                                   No pseudopotential on this center.
   70          1
                                   No pseudopotential on this center.
   71          1
                                   No pseudopotential on this center.
   72          1
                                   No pseudopotential on this center.
   73          1
                                   No pseudopotential on this center.
   74          1
                                   No pseudopotential on this center.
   75         46           18
                                      G and up 
                                                     2        1.0000000        0.00000000    0.00000000
                                      S - G
                                                     2       12.4300000      240.22904000    0.00000000
                                                     2        6.1707590       35.17194300    0.00000000
                                      P - G
                                                     2       11.0800000      170.41727600    0.00000000
                                                     2        5.8295540       28.47213300    0.00000000
                                      D - G
                                                     2        9.5100000       69.01384500    0.00000000
                                                     2        4.1397810       11.75086200    0.00000000
                                      F - G
                                                     2       13.2700000      -31.92955400    0.00000000
                                                     2        6.6300000       -5.39821700    0.00000000
   76         17
                                   No pseudopotential on this center.
   77         17
                                   No pseudopotential on this center.
 ======================================================================================================
 There are  1839 symmetry adapted cartesian basis functions of A   symmetry.
 There are  1616 symmetry adapted basis functions of A   symmetry.
  1616 basis functions,  2637 primitive gaussians,  1839 cartesian basis functions
   178 alpha electrons      178 beta electrons
       nuclear repulsion energy      7196.0811102695 Hartrees.
 NAtoms=   77 NActive=   77 NUniq=   77 SFac= 1.00D+00 NAtFMM=   60 NAOKFM=T Big=T
 Integral buffers will be    131072 words long.
 Raffenetti 2 integral format.
 Two-electron integral symmetry is turned on.
 Nuclear repulsion after empirical dispersion term =     7195.9320207824 Hartrees.
 One-electron integrals computed using PRISM.
   1 Symmetry operations used in ECPInt.
 ECPInt:  NShTT=  201295 NPrTT=  630012 LenC2=  161715 LenP2D=  334424.
 LDataN:  DoStor=T MaxTD1= 7 Len=  274
 NBasis=  1616 RedAO= T EigKep=  3.70D-06  NBF=  1616
 NBsUse=  1616 1.00D-06 EigRej= -1.00D+00 NBFU=  1616
 Defaulting to unpruned grid for atomic number  46.
 ExpMin= 1.60D-02 ExpMax= 6.95D+04 ExpMxC= 2.37D+03 IAcc=3 IRadAn=         5 AccDes= 0.00D+00
 Harris functional with IExCor= 1009 and IRadAn=       5 diagonalized for initial guess.
 HarFok:  IExCor= 1009 AccDes= 0.00D+00 IRadAn=         5 IDoV= 1 UseB2=F ITyADJ=14
 ICtDFT=  3500011 ScaDFX=  1.000000  1.000000  1.000000  1.000000
 Defaulting to unpruned grid for atomic number  46.
 Defaulting to unpruned grid for atomic number  46.
 Defaulting to unpruned grid for atomic number  46.
 Defaulting to unpruned grid for atomic number  46.
 Defaulting to unpruned grid for atomic number  46.
 Defaulting to unpruned grid for atomic number  46.
 Defaulting to unpruned grid for atomic number  46.
 Defaulting to unpruned grid for atomic number  46.
 Defaulting to unpruned grid for atomic number  46.
 Defaulting to unpruned grid for atomic number  46.
 Defaulting to unpruned grid for atomic number  46.
 Defaulting to unpruned grid for atomic number  46.
 Defaulting to unpruned grid for atomic number  46.
 Defaulting to unpruned grid for atomic number  46.
 Defaulting to unpruned grid for atomic number  46.
 Defaulting to unpruned grid for atomic number  46.
 Defaulting to unpruned grid for atomic number  46.
 Defaulting to unpruned grid for atomic number  46.
 Defaulting to unpruned grid for atomic number  46.
 Defaulting to unpruned grid for atomic number  46.
 Defaulting to unpruned grid for atomic number  46.
 Defaulting to unpruned grid for atomic number  46.
 Defaulting to unpruned grid for atomic number  46.
 Defaulting to unpruned grid for atomic number  46.
 Defaulting to unpruned grid for atomic number  46.
 Defaulting to unpruned grid for atomic number  46.
 Defaulting to unpruned grid for atomic number  46.
 Defaulting to unpruned grid for atomic number  46.
 FoFCou: FMM=F IPFlag=           0 FMFlag=      100000 FMFlg1=        2001
         NFxFlg=           0 DoJE=T BraDBF=F KetDBF=T FulRan=T
         wScrn=  0.000000 ICntrl=     500 IOpCl=  0 I1Cent=   200000004 NGrid=           0
         NMat0=    1 NMatS0=      1 NMatT0=    0 NMatD0=    1 NMtDS0=    0 NMtDT0=    0
 Petite list used in FoFCou.
 Requested convergence on RMS density matrix=1.00D-08 within 128 cycles.
 Requested convergence on MAX density matrix=1.00D-06.
 Requested convergence on             energy=1.00D-06.
 No special actions if energy rises.
 Defaulting to unpruned grid for atomic number  46.
 Defaulting to unpruned grid for atomic number  46.
 Defaulting to unpruned grid for atomic number  46.
 Defaulting to unpruned grid for atomic number  46.
 Defaulting to unpruned grid for atomic number  46.
 Defaulting to unpruned grid for atomic number  46.
 Defaulting to unpruned grid for atomic number  46.
 Defaulting to unpruned grid for atomic number  46.
 Defaulting to unpruned grid for atomic number  46.
 Defaulting to unpruned grid for atomic number  46.
 Defaulting to unpruned grid for atomic number  46.
 Defaulting to unpruned grid for atomic number  46.
 Defaulting to unpruned grid for atomic number  46.
 Defaulting to unpruned grid for atomic number  46.
 Defaulting to unpruned grid for atomic number  46.
 Defaulting to unpruned grid for atomic number  46.
 Defaulting to unpruned grid for atomic number  46.
 Defaulting to unpruned grid for atomic number  46.
 Defaulting to unpruned grid for atomic number  46.
 Defaulting to unpruned grid for atomic number  46.
 Defaulting to unpruned grid for atomic number  46.
 Defaulting to unpruned grid for atomic number  46.
 Defaulting to unpruned grid for atomic number  46.
 Defaulting to unpruned grid for atomic number  46.
 Defaulting to unpruned grid for atomic number  46.
 Defaulting to unpruned grid for atomic number  46.
 Defaulting to unpruned grid for atomic number  46.
 Defaulting to unpruned grid for atomic number  46.
 EnCoef did     6 forward-backward iterations
 EnCoef did   100 forward-backward iterations
 EnCoef did     2 forward-backward iterations
 EnCoef did     2 forward-backward iterations
 Restarting incremental Fock formation.
 SCF Done:  E(RPBE1PBE) =  -3310.06347342     A.U. after   25 cycles
            NFock= 25  Conv=0.66D-08     -V/T= 2.0287
 DoSCS=F DFT=T ScalE2(SS,OS)=  1.000000  1.000000
 Range of M.O.s used for correlation:     1  1616
 NBasis=  1616 NAE=   178 NBE=   178 NFC=     0 NFV=     0
 NROrb=   1616 NOA=   178 NOB=   178 NVA=  1438 NVB=  1438

 **** Warning!!: The largest alpha MO coefficient is  0.46536553D+02

          Differentiating once with respect to magnetic field using GIAOs.
          Electric field/nuclear overlap derivatives assumed to be zero.
 Defaulting to unpruned grid for atomic number  46.
 FoFCou: FMM=F IPFlag=           0 FMFlag=      100000 FMFlg1=        2001
         NFxFlg=           0 DoJE=F BraDBF=F KetDBF=T FulRan=T
         wScrn=  0.000000 ICntrl=    6100 IOpCl=  0 I1Cent=           7 NGrid=          77
         NMat0=    1 NMatS0=      1 NMatT0=    0 NMatD0=    1 NMtDS0=    0 NMtDT0=    0
 Symmetry not used in FoFCou.
   1 Symmetry operations used in ECPInt.
 ECPInt:  NShTT=  201295 NPrTT=  630012 LenC2=  201296 LenP2D=  630012.
 LDataN:  DoStor=T MaxTD1= 8 Len=  415
 FoFJK:  IHMeth= 1 ICntrl=    6127 DoSepK=F KAlg= 0 I1Cent=   0 FoldK=F
 IRaf=         1 NMat=   1 IRICut=       1 DoRegI=T DoRafI=F ISym2E= 0.
 Defaulting to unpruned grid for atomic number  46.
 Defaulting to unpruned grid for atomic number  46.
 Defaulting to unpruned grid for atomic number  46.
 Defaulting to unpruned grid for atomic number  46.
 Defaulting to unpruned grid for atomic number  46.
 Defaulting to unpruned grid for atomic number  46.
 Defaulting to unpruned grid for atomic number  46.
 Defaulting to unpruned grid for atomic number  46.
 Defaulting to unpruned grid for atomic number  46.
 Defaulting to unpruned grid for atomic number  46.
 Defaulting to unpruned grid for atomic number  46.
 Defaulting to unpruned grid for atomic number  46.
 Defaulting to unpruned grid for atomic number  46.
 Defaulting to unpruned grid for atomic number  46.
 Defaulting to unpruned grid for atomic number  46.
 Defaulting to unpruned grid for atomic number  46.
 Defaulting to unpruned grid for atomic number  46.
 Defaulting to unpruned grid for atomic number  46.
 Defaulting to unpruned grid for atomic number  46.
 Defaulting to unpruned grid for atomic number  46.
 Defaulting to unpruned grid for atomic number  46.
 Defaulting to unpruned grid for atomic number  46.
 Defaulting to unpruned grid for atomic number  46.
 Defaulting to unpruned grid for atomic number  46.
 Defaulting to unpruned grid for atomic number  46.
 Defaulting to unpruned grid for atomic number  46.
 Defaulting to unpruned grid for atomic number  46.
 Defaulting to unpruned grid for atomic number  46.
          There are     3 degrees of freedom in the 1st order CPHF.  IDoFFX=0 NUNeed=     3.
      3 vectors produced by pass  0 Test12= 8.53D-12 3.33D-08 XBig12= 2.12D+02 1.74D+00.
 AX will form     3 AO Fock derivatives at one time.
      3 vectors produced by pass  1 Test12= 8.53D-12 3.33D-08 XBig12= 1.07D+00 1.88D-01.
      3 vectors produced by pass  2 Test12= 8.53D-12 3.33D-08 XBig12= 1.05D-02 4.65D-02.
      3 vectors produced by pass  3 Test12= 8.53D-12 3.33D-08 XBig12= 3.05D-04 7.57D-03.
      3 vectors produced by pass  4 Test12= 8.53D-12 3.33D-08 XBig12= 1.82D-06 3.60D-04.
      3 vectors produced by pass  5 Test12= 8.53D-12 3.33D-08 XBig12= 1.74D-08 4.39D-05.
      3 vectors produced by pass  6 Test12= 8.53D-12 3.33D-08 XBig12= 1.99D-10 4.90D-06.
      3 vectors produced by pass  7 Test12= 8.53D-12 3.33D-08 XBig12= 1.90D-12 5.25D-07.
 InvSVY:  IOpt=1 It=  1 EMax= 3.55D-15
 Solved reduced A of dimension    24 with     3 vectors.
 Calculating GIAO nuclear magnetic shielding tensors.
 SCF GIAO Magnetic shielding tensor (ppm):
      1  P    Isotropic =   251.5035   Anisotropy =    99.8398
   XX=   284.3043   YX=    -8.9121   ZX=   -51.7248
   XY=    -9.0418   YY=   196.7372   ZY=    36.9740
   XZ=   -10.6589   YZ=    33.0678   ZZ=   273.4690
   Eigenvalues:   183.0642   253.3829   318.0634
      2  C    Isotropic =    52.7792   Anisotropy =   154.0606
   XX=    23.6392   YX=     7.9170   ZX=     4.7260
   XY=     6.7187   YY=   -20.6368   ZY=     2.5955
   XZ=    -0.9276   YZ=   -12.1286   ZZ=   155.3353
   Eigenvalues:   -21.9564    24.8078   155.4863
      3  C    Isotropic =    48.8924   Anisotropy =   187.4729
   XX=   -25.1125   YX=   -35.5541   ZX=     9.2206
   XY=   -45.1686   YY=     0.8164   ZY=   -19.1801
   XZ=    18.2013   YZ=   -11.1756   ZZ=   170.9734
   Eigenvalues:   -54.5612    27.3641   173.8744
      4  C    Isotropic =    54.8996   Anisotropy =   177.9468
   XX=   -39.9307   YX=    29.6927   ZX=    16.9040
   XY=    28.4479   YY=    39.1030   ZY=   -27.4619
   XZ=    29.1156   YZ=   -32.4970   ZZ=   165.5266
   Eigenvalues:   -54.0003    45.1684   173.5309
      5  C    Isotropic =    53.9686   Anisotropy =   179.4453
   XX=    33.8839   YX=     6.0133   ZX=     9.2425
   XY=    12.4644   YY=   -32.9997   ZY=   -50.1704
   XZ=    21.1450   YZ=   -46.7151   ZZ=   161.0218
   Eigenvalues:   -46.3804    34.6875   173.5988
      6  C    Isotropic =    43.8295   Anisotropy =   167.5387
   XX=   -17.7847   YX=   -24.3909   ZX=     0.6312
   XY=   -15.7257   YY=    -0.1093   ZY=   -46.1818
   XZ=    -1.7091   YZ=   -15.2931   ZZ=   149.3827
   Eigenvalues:   -32.6375     8.6041   155.5220
      7  C    Isotropic =    21.8717   Anisotropy =   130.0572
   XX=   -60.0054   YX=    30.7416   ZX=    23.0792
   XY=    30.9762   YY=    19.5713   ZY=   -18.5101
   XZ=     3.7474   YZ=    -8.4652   ZZ=   106.0491
   Eigenvalues:   -72.2085    29.2470   108.5765
      8  O    Isotropic =   143.4063   Anisotropy =   210.7868
   XX=    88.4449   YX=    23.0413   ZX=   -51.9941
   XY=    33.9145   YY=    97.8081   ZY=   -49.2431
   XZ=   -75.5135   YZ=   -50.3166   ZZ=   243.9660
   Eigenvalues:    60.9242    85.3640   283.9308
      9  C    Isotropic =   142.0854   Anisotropy =     8.6751
   XX=   141.4197   YX=    -1.9191   ZX=    -2.1154
   XY=     0.3944   YY=   137.7161   ZY=    -5.8644
   XZ=    -2.2412   YZ=     4.6362   ZZ=   147.1204
   Eigenvalues:   137.4444   140.9431   147.8688
     10  C    Isotropic =   162.6005   Anisotropy =    30.6020
   XX=   149.3510   YX=    -1.5627   ZX=    -7.3705
   XY=    -3.9672   YY=   166.2658   ZY=    14.8257
   XZ=    -6.9245   YZ=     8.7801   ZZ=   172.1847
   Eigenvalues:   147.2716   157.5280   183.0019
     11  C    Isotropic =   153.5337   Anisotropy =    43.8326
   XX=   147.2127   YX=     6.6948   ZX=    -9.9043
   XY=     2.9938   YY=   142.6015   ZY=   -13.1934
   XZ=   -10.0599   YZ=   -22.1363   ZZ=   170.7868
   Eigenvalues:   134.0964   143.7492   182.7554
     12  C    Isotropic =    38.0168   Anisotropy =   190.7257
   XX=   159.1176   YX=    -8.0956   ZX=   -31.2643
   XY=   -16.4241   YY=    -1.4304   ZY=     9.2588
   XZ=   -33.4572   YZ=     1.8611   ZZ=   -43.6369
   Eigenvalues:   -48.9550    -2.1620   165.1673
     13  C    Isotropic =    49.1431   Anisotropy =   195.8421
   XX=   176.2967   YX=   -17.5589   ZX=   -10.4369
   XY=   -19.5403   YY=   -45.7789   ZY=    34.0019
   XZ=   -18.9268   YZ=    28.8234   ZZ=    16.9116
   Eigenvalues:   -59.3838    27.1087   179.7045
     14  C    Isotropic =    54.6833   Anisotropy =   184.3257
   XX=   170.4885   YX=   -32.4763   ZX=   -25.4780
   XY=   -29.2569   YY=   -18.6096   ZY=   -44.0982
   XZ=   -25.9330   YZ=   -46.8655   ZZ=    12.1710
   Eigenvalues:   -58.2542    44.7370   177.5671
     15  C    Isotropic =    52.2671   Anisotropy =   191.1974
   XX=   173.5190   YX=   -18.8067   ZX=   -32.2006
   XY=   -17.3816   YY=    35.9050   ZY=     9.3967
   XZ=   -26.0236   YZ=     8.0553   ZZ=   -52.6227
   Eigenvalues:   -56.7575    33.8267   179.7320
     16  C    Isotropic =    52.0536   Anisotropy =   194.8080
   XX=   177.6744   YX=   -18.7225   ZX=   -16.9396
   XY=   -23.9742   YY=   -40.7441   ZY=    37.1979
   XZ=   -13.1604   YZ=    36.4466   ZZ=    19.2304
   Eigenvalues:   -58.9558    33.1909   181.9256
     17  C    Isotropic =    45.0348   Anisotropy =   205.8552
   XX=   175.8734   YX=   -34.5942   ZX=   -15.4348
   XY=   -33.5128   YY=   -36.5319   ZY=   -41.3295
   XZ=   -24.0899   YZ=   -31.7370   ZZ=    -4.2372
   Eigenvalues:   -66.7021    19.5348   182.2716
     18  C    Isotropic =    46.2140   Anisotropy =   178.3190
   XX=    -2.3361   YX=   -61.8919   ZX=    45.5432
   XY=   -62.6083   YY=    46.7090   ZY=   -75.3961
   XZ=    25.0364   YZ=   -53.7571   ZZ=    94.2690
   Eigenvalues:   -45.2364    18.7850   165.0933
     19  C    Isotropic =    41.7349   Anisotropy =   193.8324
   XX=    55.8045   YX=   -42.3802   ZX=    38.7048
   XY=   -48.9260   YY=    44.3617   ZY=  -100.5647
   XZ=    44.2332   YZ=  -104.9747   ZZ=    25.0384
   Eigenvalues:   -68.5229    22.7710   170.9565
     20  C    Isotropic =    48.6692   Anisotropy =   191.4924
   XX=    -0.9917   YX=   -82.9312   ZX=    35.7663
   XY=   -82.6675   YY=    54.2547   ZY=   -64.4035
   XZ=    34.9468   YZ=   -62.3797   ZZ=    92.7445
   Eigenvalues:   -61.2183    30.8950   176.3308
     21  C    Isotropic =    54.1559   Anisotropy =   181.2201
   XX=    12.4099   YX=   -24.9682   ZX=    84.5684
   XY=   -26.9994   YY=    94.4275   ZY=   -62.4698
   XZ=    84.0265   YZ=   -62.5936   ZZ=    55.6303
   Eigenvalues:   -55.5243    43.0227   174.9693
     22  C    Isotropic =    51.8039   Anisotropy =   185.7370
   XX=    63.7504   YX=   -40.0409   ZX=    34.9917
   XY=   -39.7696   YY=    41.4818   ZY=  -102.7888
   XZ=    37.2543   YZ=  -105.0608   ZZ=    50.1795
   Eigenvalues:   -58.3183    38.1015   175.6286
     23  C    Isotropic =    33.6677   Anisotropy =   206.4751
   XX=   -11.0190   YX=   -33.9487   ZX=    83.3411
   XY=   -33.1518   YY=    72.7204   ZY=   -74.8394
   XZ=    82.7118   YZ=   -81.2323   ZZ=    39.3018
   Eigenvalues:   -76.0821     5.7674   171.3177
     24  H    Isotropic =    23.6337   Anisotropy =    10.8709
   XX=    25.1726   YX=    -4.6544   ZX=     0.4693
   XY=    -2.6389   YY=    28.5230   ZY=     1.5263
   XZ=    -1.7855   YZ=    -1.1245   ZZ=    17.2054
   Eigenvalues:    17.1504    22.8696    30.8809
     25  H    Isotropic =    23.5814   Anisotropy =     8.6638
   XX=    29.3117   YX=    -0.5032   ZX=     0.5854
   XY=     1.5896   YY=    22.7702   ZY=     0.6566
   XZ=    -0.6498   YZ=     2.1827   ZZ=    18.6621
   Eigenvalues:    18.2159    23.1709    29.3572
     26  H    Isotropic =    23.8754   Anisotropy =     5.3978
   XX=    25.0802   YX=    -0.4055   ZX=     0.6693
   XY=     0.4475   YY=    27.3680   ZY=     1.3560
   XZ=     0.7327   YZ=     0.4815   ZZ=    19.1780
   Eigenvalues:    18.9969    25.1554    27.4739
     27  H    Isotropic =    29.8606   Anisotropy =     9.4115
   XX=    27.3849   YX=    -1.1995   ZX=    -1.9792
   XY=    -0.6784   YY=    28.0994   ZY=     2.3479
   XZ=    -1.8574   YZ=     4.4040   ZZ=    34.0975
   Eigenvalues:    26.5670    26.8799    36.1349
     28  H    Isotropic =    29.2073   Anisotropy =     9.5886
   XX=    29.5157   YX=    -3.4386   ZX=     1.2802
   XY=    -3.8691   YY=    33.4027   ZY=     0.3104
   XZ=     1.3177   YZ=     0.9187   ZZ=    24.7034
   Eigenvalues:    24.0722    27.9499    35.5997
     29  H    Isotropic =    29.1271   Anisotropy =     6.1813
   XX=    23.0338   YX=     0.4415   ZX=    -3.2414
   XY=     0.1390   YY=    32.1944   ZY=     0.2369
   XZ=    -3.1476   YZ=     0.5778   ZZ=    32.1530
   Eigenvalues:    22.0104    32.1229    33.2480
     30  H    Isotropic =    29.9876   Anisotropy =    10.1061
   XX=    27.1270   YX=    -1.5265   ZX=     1.0939
   XY=    -2.1041   YY=    31.3924   ZY=    -3.3192
   XZ=     1.7340   YZ=    -6.2082   ZZ=    31.4433
   Eigenvalues:    26.3348    26.9030    36.7250
     31  H    Isotropic =    24.4440   Anisotropy =    13.2994
   XX=    32.0846   YX=     2.3412   ZX=     1.1522
   XY=     3.3913   YY=    21.1275   ZY=    -2.0413
   XZ=    -5.3494   YZ=    -2.6485   ZZ=    20.1199
   Eigenvalues:    18.2228    21.7989    33.3103
     32  H    Isotropic =    23.7254   Anisotropy =     3.6131
   XX=    24.5251   YX=     0.9828   ZX=    -1.1848
   XY=     0.5037   YY=    23.0723   ZY=     2.3859
   XZ=    -1.9576   YZ=     2.3977   ZZ=    23.5788
   Eigenvalues:    20.2998    24.7423    26.1341
     33  H    Isotropic =    23.5379   Anisotropy =     7.2685
   XX=    26.5721   YX=     3.2099   ZX=    -1.0932
   XY=     2.9708   YY=    22.7888   ZY=     0.9556
   XZ=    -1.5644   YZ=     0.7586   ZZ=    21.2529
   Eigenvalues:    19.7242    22.5059    28.3836
     34  H    Isotropic =    21.3065   Anisotropy =    15.0463
   XX=    21.3649   YX=     8.8303   ZX=     1.4419
   XY=     7.7284   YY=    24.4078   ZY=    -0.2685
   XZ=    -0.3006   YZ=     1.0357   ZZ=    18.1467
   Eigenvalues:    14.4582    18.1238    31.3373
     35  H    Isotropic =    26.0219   Anisotropy =    10.2582
   XX=    22.1223   YX=    -0.4518   ZX=     0.1234
   XY=     0.4485   YY=    23.2565   ZY=     0.0248
   XZ=     1.0642   YZ=    -2.3527   ZZ=    32.6867
   Eigenvalues:    22.0852    23.1198    32.8607
     36  H    Isotropic =    25.0392   Anisotropy =     8.3169
   XX=    21.1001   YX=    -0.8628   ZX=    -1.5558
   XY=    -0.1565   YY=    24.3667   ZY=    -2.1634
   XZ=    -0.9512   YZ=    -2.3301   ZZ=    29.6507
   Eigenvalues:    20.7050    23.8288    30.5837
     37  H    Isotropic =    24.6098   Anisotropy =     2.8505
   XX=    21.8443   YX=     0.0885   ZX=    -2.5820
   XY=     0.0645   YY=    26.3697   ZY=     0.1978
   XZ=    -0.6971   YZ=    -0.5653   ZZ=    25.6153
   Eigenvalues:    21.2312    26.0880    26.5101
     38  H    Isotropic =    25.2778   Anisotropy =     4.3357
   XX=    25.4967   YX=     1.4826   ZX=    -1.9154
   XY=    -0.2683   YY=    22.5917   ZY=    -0.0533
   XZ=    -0.1549   YZ=    -0.1707   ZZ=    27.7449
   Eigenvalues:    22.4681    25.1970    28.1682
     39  H    Isotropic =    25.3779   Anisotropy =    10.7068
   XX=    27.5374   YX=     1.7184   ZX=     3.1855
   XY=    -2.5156   YY=    21.6776   ZY=    -6.1410
   XZ=     2.6819   YZ=    -6.3202   ZZ=    26.9186
   Eigenvalues:    17.3662    26.2517    32.5158
     40  P    Isotropic =   248.6481   Anisotropy =   109.7196
   XX=   268.1804   YX=    16.2450   ZX=    30.1949
   XY=   -14.3132   YY=   180.7609   ZY=    23.9994
   XZ=    40.0699   YZ=     6.3301   ZZ=   297.0031
   Eigenvalues:   178.6596   245.4903   321.7945
     41  C    Isotropic =    58.1630   Anisotropy =   150.7238
   XX=    78.8762   YX=    11.1041   ZX=   -55.2265
   XY=    15.4899   YY=    -2.6522   ZY=   -36.4616
   XZ=   -67.2774   YZ=   -35.2767   ZZ=    98.2649
   Eigenvalues:   -14.6726    30.5161   158.6455
     42  C    Isotropic =    43.0578   Anisotropy =   191.8194
   XX=    16.5158   YX=    54.7357   ZX=   -87.5120
   XY=    57.0305   YY=    -0.5237   ZY=   -18.5260
   XZ=   -76.6010   YZ=   -14.6137   ZZ=   113.1814
   Eigenvalues:   -61.2110    19.4471   170.9374
     43  C    Isotropic =    57.1223   Anisotropy =   175.3122
   XX=    35.1535   YX=     2.5666   ZX=   -99.6221
   XY=     0.8433   YY=    51.4952   ZY=   -41.5163
   XZ=  -103.0886   YZ=   -42.5439   ZZ=    84.7183
   Eigenvalues:   -50.6656    48.0355   173.9971
     44  C    Isotropic =    52.6349   Anisotropy =   181.8433
   XX=    84.8787   YX=    18.1815   ZX=   -62.1578
   XY=    18.2565   YY=   -30.5478   ZY=   -55.9091
   XZ=   -71.0668   YZ=   -44.8609   ZZ=   103.5738
   Eigenvalues:   -47.5062    31.5471   173.8637
     45  C    Isotropic =    43.6460   Anisotropy =   170.3383
   XX=    40.4835   YX=    33.4867   ZX=   -79.5367
   XY=    38.0188   YY=    -6.0797   ZY=   -28.2241
   XZ=   -73.5286   YZ=    -4.8373   ZZ=    96.5342
   Eigenvalues:   -32.5488     6.2819   157.2049
     46  C    Isotropic =    19.7149   Anisotropy =   132.3308
   XX=     4.6423   YX=    -4.3263   ZX=   -79.0447
   XY=    -5.3162   YY=    19.7529   ZY=   -30.2453
   XZ=   -87.4383   YZ=   -23.8661   ZZ=    34.7495
   Eigenvalues:   -69.9350    21.1443   107.9355
     47  C    Isotropic =    45.6662   Anisotropy =   192.4442
   XX=   167.6773   YX=   -18.2364   ZX=   -15.9620
   XY=   -37.8886   YY=   -11.5825   ZY=    41.7973
   XZ=   -11.4480   YZ=    34.1220   ZZ=   -19.0960
   Eigenvalues:   -53.8438    16.8802   173.9624
     48  C    Isotropic =    48.9434   Anisotropy =   201.7619
   XX=   171.6045   YX=   -49.5639   ZX=   -23.7895
   XY=   -43.1008   YY=   -45.7658   ZY=   -20.0896
   XZ=   -23.8402   YZ=   -17.8395   ZZ=    20.9915
   Eigenvalues:   -61.9298    25.3087   183.4514
     49  C    Isotropic =    50.1383   Anisotropy =   193.8500
   XX=   168.0922   YX=   -36.5711   ZX=   -33.8759
   XY=   -29.9143   YY=    32.2868   ZY=   -19.9000
   XZ=   -33.8011   YZ=   -21.0954   ZZ=   -49.9641
   Eigenvalues:   -62.1279    33.1711   179.3716
     50  C    Isotropic =    50.1526   Anisotropy =   192.6983
   XX=   171.4494   YX=   -24.2532   ZX=   -19.6459
   XY=   -26.1581   YY=    -8.1171   ZY=    50.6014
   XZ=   -18.8449   YZ=    48.3125   ZZ=   -12.8745
   Eigenvalues:   -60.0640    31.9036   178.6181
     51  C    Isotropic =    51.2419   Anisotropy =   189.6164
   XX=   165.6373   YX=   -45.2242   ZX=   -24.2716
   XY=   -44.5953   YY=   -46.0428   ZY=   -18.8012
   XZ=   -24.3800   YZ=   -17.9315   ZZ=    34.1313
   Eigenvalues:   -60.7781    36.8510   177.6528
     52  C    Isotropic =    43.2736   Anisotropy =   194.5143
   XX=   157.8663   YX=   -49.5218   ZX=   -34.6104
   XY=   -31.7754   YY=    27.7084   ZY=   -30.6872
   XZ=   -36.0655   YZ=   -15.4344   ZZ=   -55.7540
   Eigenvalues:   -70.6669    27.5379   172.9498
     53  C    Isotropic =    41.6387   Anisotropy =   179.8171
   XX=   -35.1576   YX=    44.8548   ZX=    35.5016
   XY=    27.3637   YY=    88.4880   ZY=    66.8567
   XZ=    38.9337   YZ=    67.8511   ZZ=    71.5856
   Eigenvalues:   -48.9953    12.3945   161.5168
     54  C    Isotropic =    47.9292   Anisotropy =   192.1511
   XX=    30.1863   YX=     6.5925   ZX=    44.4302
   XY=     6.0314   YY=    65.8568   ZY=   110.1784
   XZ=    44.5411   YZ=   110.5356   ZZ=    47.7444
   Eigenvalues:   -63.1133    30.8709   176.0299
     55  C    Isotropic =    50.2955   Anisotropy =   188.3332
   XX=   -43.0881   YX=    32.0851   ZX=    44.5633
   XY=    32.0654   YY=   100.3880   ZY=    65.2771
   XZ=    48.1219   YZ=    64.3531   ZZ=    93.5867
   Eigenvalues:   -58.3763    33.4119   175.8510
     56  C    Isotropic =    54.1768   Anisotropy =   180.0644
   XX=    15.8462   YX=    60.7379   ZX=    -6.7762
   XY=    61.4429   YY=    61.5908   ZY=    92.7000
   XZ=    -4.8544   YZ=    89.7632   ZZ=    85.0934
   Eigenvalues:   -56.0577    44.3684   174.2197
     57  C    Isotropic =    53.1475   Anisotropy =   184.0445
   XX=    36.9014   YX=     2.1576   ZX=    46.4197
   XY=     5.0280   YY=    73.5358   ZY=   103.4025
   XZ=    47.4971   YZ=   107.1724   ZZ=    49.0054
   Eigenvalues:   -56.7911    40.3898   175.8439
     58  C    Isotropic =    39.4219   Anisotropy =   203.5242
   XX=    -0.0821   YX=    55.8126   ZX=     7.5751
   XY=    63.3634   YY=    54.0252   ZY=    99.6240
   XZ=     0.4808   YZ=   108.9058   ZZ=    64.3226
   Eigenvalues:   -71.1710    14.3320   175.1047
     59  H    Isotropic =    24.5057   Anisotropy =    10.6993
   XX=    23.7215   YX=     4.9100   ZX=     3.3346
   XY=     1.0043   YY=    25.8286   ZY=     6.2135
   XZ=     0.5508   YZ=     3.9723   ZZ=    23.9671
   Eigenvalues:    19.6644    22.2142    31.6386
     60  H    Isotropic =    23.6186   Anisotropy =     8.7246
   XX=    25.6643   YX=    -1.0685   ZX=     4.5810
   XY=    -2.5967   YY=    22.9406   ZY=    -0.5175
   XZ=     5.3158   YZ=     1.3940   ZZ=    22.2509
   Eigenvalues:    18.2769    23.1438    29.4350
     61  H    Isotropic =    24.1377   Anisotropy =     5.3928
   XX=    23.5435   YX=    -0.0518   ZX=     2.3507
   XY=    -1.4733   YY=    27.2381   ZY=     1.7877
   XZ=     1.8222   YZ=     1.6566   ZZ=    21.6314
   Eigenvalues:    19.8241    24.8561    27.7329
     62  H    Isotropic =    29.2418   Anisotropy =     9.4688
   XX=    29.7143   YX=     2.7412   ZX=     2.2650
   XY=     2.9496   YY=    32.6475   ZY=     2.5718
   XZ=     2.3717   YZ=     2.6777   ZZ=    25.3636
   Eigenvalues:    24.1091    28.0619    35.5543
     63  H    Isotropic =    30.1407   Anisotropy =     9.8293
   XX=    30.9939   YX=     4.9062   ZX=    -2.2637
   XY=     3.1269   YY=    30.8445   ZY=    -1.4253
   XZ=    -3.1675   YZ=    -3.8193   ZZ=    28.5838
   Eigenvalues:    26.8174    26.9112    36.6936
     64  H    Isotropic =    25.2646   Anisotropy =    15.9855
   XX=    34.5658   YX=    -2.6741   ZX=    -4.8611
   XY=    -4.6815   YY=    20.8451   ZY=    -0.2260
   XZ=    -0.7783   YZ=    -1.0251   ZZ=    20.3828
   Eigenvalues:    18.6601    21.2121    35.9215
     65  H    Isotropic =    23.3133   Anisotropy =    12.0456
   XX=    27.6134   YX=     3.4432   ZX=    -6.0821
   XY=     3.8183   YY=    19.7214   ZY=    -0.2678
   XZ=    -3.7287   YZ=     1.2125   ZZ=    22.6051
   Eigenvalues:    17.0510    21.5451    31.3437
     66  H    Isotropic =    24.9333   Anisotropy =     9.3007
   XX=    23.5545   YX=     2.8324   ZX=     0.6660
   XY=    -0.9838   YY=    22.4235   ZY=    -2.8886
   XZ=     1.5389   YZ=    -5.9819   ZZ=    28.8220
   Eigenvalues:    19.6958    23.9704    31.1338
     67  H    Isotropic =    24.3443   Anisotropy =     5.6893
   XX=    22.7005   YX=    -0.4206   ZX=     1.9126
   XY=    -0.2671   YY=    26.0324   ZY=    -2.1739
   XZ=     1.1090   YZ=    -2.9711   ZZ=    24.3000
   Eigenvalues:    21.4450    23.4508    28.1372
     68  H    Isotropic =    23.8714   Anisotropy =     2.7565
   XX=    21.3083   YX=    -0.6977   ZX=     1.7975
   XY=    -0.1576   YY=    25.4149   ZY=     0.4098
   XZ=     1.5560   YZ=     0.3417   ZZ=    24.8909
   Eigenvalues:    20.5864    25.3186    25.7090
     69  H    Isotropic =    23.7471   Anisotropy =     6.3076
   XX=    20.5862   YX=    -1.3251   ZX=     0.6405
   XY=    -0.7248   YY=    24.8990   ZY=    -2.2566
   XZ=     1.4975   YZ=    -2.3204   ZZ=    25.7560
   Eigenvalues:    20.2859    23.0031    27.9521
     70  H    Isotropic =    22.5370   Anisotropy =    11.3276
   XX=    20.0523   YX=    -0.1719   ZX=    -0.3426
   XY=     0.2109   YY=    27.7959   ZY=    -4.3835
   XZ=     1.9766   YZ=    -5.3197   ZZ=    19.7626
   Eigenvalues:    17.2786    20.2436    30.0887
     71  H    Isotropic =    23.9388   Anisotropy =     7.2351
   XX=    28.2445   YX=    -1.6651   ZX=    -1.5094
   XY=    -1.3473   YY=    21.7504   ZY=    -1.3084
   XZ=    -1.2188   YZ=    -0.6993   ZZ=    21.8213
   Eigenvalues:    20.2643    22.7898    28.7621
     72  H    Isotropic =    23.9714   Anisotropy =     3.3041
   XX=    25.0387   YX=    -0.9937   ZX=    -0.9522
   XY=    -0.8801   YY=    23.3670   ZY=    -2.7937
   XZ=    -0.4830   YZ=    -2.6330   ZZ=    23.5084
   Eigenvalues:    20.4255    25.3145    26.1741
     73  H    Isotropic =    24.2178   Anisotropy =     7.4714
   XX=    28.1874   YX=    -0.4802   ZX=    -2.8978
   XY=    -0.5762   YY=    21.7461   ZY=    -1.5583
   XZ=    -2.2177   YZ=    -1.6591   ZZ=    22.7200
   Eigenvalues:    20.0371    23.4176    29.1988
     74  H    Isotropic =    24.0730   Anisotropy =     6.9028
   XX=    26.3315   YX=     3.3207   ZX=     0.7152
   XY=     2.8340   YY=    24.1626   ZY=     1.9763
   XZ=    -0.7453   YZ=     1.6812   ZZ=    21.7248
   Eigenvalues:    20.2742    23.2699    28.6748
     75  Pd   Isotropic =  -213.5059   Anisotropy =   291.3026
   XX=   -31.4331   YX=   -48.8536   ZX=    -7.3248
   XY=   -82.1108   YY=  -525.6869   ZY=    78.6142
   XZ=     2.1583   YZ=    90.6019   ZZ=   -83.3975
   Eigenvalues:  -549.2177   -71.9957   -19.3042
     76  Cl   Isotropic =   840.9131   Anisotropy =   226.9039
   XX=   724.8517   YX=    21.3746   ZX=  -106.0221
   XY=    83.4731   YY=   981.6052   ZY=    20.9345
   XZ=  -100.0417   YZ=     6.7592   ZZ=   816.2824
   Eigenvalues:   649.8256   880.7313   992.1824
     77  Cl   Isotropic =   950.4789   Anisotropy =   608.9702
   XX=   714.4585   YX=    40.9298   ZX=   112.6320
   XY=   157.0462   YY=  1328.5626   ZY=   -16.2688
   XZ=   112.2361   YZ=  -181.8051   ZZ=   808.4154
   Eigenvalues:   613.1351   881.8425  1356.4590
 End of Minotr F.D. properties file   721 does not exist.
 End of Minotr F.D. properties file   722 does not exist.
 End of Minotr F.D. properties file   788 does not exist.

 **********************************************************************

            Population analysis using the SCF density.

 **********************************************************************

 Orbital symmetries:
       Occupied  (A) (A) (A) (A) (A) (A) (A) (A) (A) (A) (A) (A)
                 (A) (A) (A) (A) (A) (A) (A) (A) (A) (A) (A) (A)
                 (A) (A) (A) (A) (A) (A) (A) (A) (A) (A) (A) (A)
                 (A) (A) (A) (A) (A) (A) (A) (A) (A) (A) (A) (A)
                 (A) (A) (A) (A) (A) (A) (A) (A) (A) (A) (A) (A)
                 (A) (A) (A) (A) (A) (A) (A) (A) (A) (A) (A) (A)
                 (A) (A) (A) (A) (A) (A) (A) (A) (A) (A) (A) (A)
                 (A) (A) (A) (A) (A) (A) (A) (A) (A) (A) (A) (A)
                 (A) (A) (A) (A) (A) (A) (A) (A) (A) (A) (A) (A)
                 (A) (A) (A) (A) (A) (A) (A) (A) (A) (A) (A) (A)
                 (A) (A) (A) (A) (A) (A) (A) (A) (A) (A) (A) (A)
                 (A) (A) (A) (A) (A) (A) (A) (A) (A) (A) (A) (A)
                 (A) (A) (A) (A) (A) (A) (A) (A) (A) (A) (A) (A)
                 (A) (A) (A) (A) (A) (A) (A) (A) (A) (A) (A) (A)
                 (A) (A) (A) (A) (A) (A) (A) (A) (A) (A)
       Virtual   (A) (A) (A) (A) (A) (A) (A) (A) (A) (A) (A) (A)
                 (A) (A) (A) (A) (A) (A) (A) (A) (A) (A) (A) (A)
                 (A) (A) (A) (A) (A) (A) (A) (A) (A) (A) (A) (A)
                 (A) (A) (A) (A) (A) (A) (A) (A) (A) (A) (A) (A)
                 (A) (A) (A) (A) (A) (A) (A) (A) (A) (A) (A) (A)
                 (A) (A) (A) (A) (A) (A) (A) (A) (A) (A) (A) (A)
                 (A) (A) (A) (A) (A) (A) (A) (A) (A) (A) (A) (A)
                 (A) (A) (A) (A) (A) (A) (A) (A) (A) (A) (A) (A)
                 (A) (A) (A) (A) (A) (A) (A) (A) (A) (A) (A) (A)
                 (A) (A) (A) (A) (A) (A) (A) (A) (A) (A) (A) (A)
                 (A) (A) (A) (A) (A) (A) (A) (A) (A) (A) (A) (A)
                 (A) (A) (A) (A) (A) (A) (A) (A) (A) (A) (A) (A)
                 (A) (A) (A) (A) (A) (A) (A) (A) (A) (A) (A) (A)
                 (A) (A) (A) (A) (A) (A) (A) (A) (A) (A) (A) (A)
                 (A) (A) (A) (A) (A) (A) (A) (A) (A) (A) (A) (A)
                 (A) (A) (A) (A) (A) (A) (A) (A) (A) (A) (A) (A)
                 (A) (A) (A) (A) (A) (A) (A) (A) (A) (A) (A) (A)
                 (A) (A) (A) (A) (A) (A) (A) (A) (A) (A) (A) (A)
                 (A) (A) (A) (A) (A) (A) (A) (A) (A) (A) (A) (A)
                 (A) (A) (A) (A) (A) (A) (A) (A) (A) (A) (A) (A)
                 (A) (A) (A) (A) (A) (A) (A) (A) (A) (A) (A) (A)
                 (A) (A) (A) (A) (A) (A) (A) (A) (A) (A) (A) (A)
                 (A) (A) (A) (A) (A) (A) (A) (A) (A) (A) (A) (A)
                 (A) (A) (A) (A) (A) (A) (A) (A) (A) (A) (A) (A)
                 (A) (A) (A) (A) (A) (A) (A) (A) (A) (A) (A) (A)
                 (A) (A) (A) (A) (A) (A) (A) (A) (A) (A) (A) (A)
                 (A) (A) (A) (A) (A) (A) (A) (A) (A) (A) (A) (A)
                 (A) (A) (A) (A) (A) (A) (A) (A) (A) (A) (A) (A)
                 (A) (A) (A) (A) (A) (A) (A) (A) (A) (A) (A) (A)
                 (A) (A) (A) (A) (A) (A) (A) (A) (A) (A) (A) (A)
                 (A) (A) (A) (A) (A) (A) (A) (A) (A) (A) (A) (A)
                 (A) (A) (A) (A) (A) (A) (A) (A) (A) (A) (A) (A)
                 (A) (A) (A) (A) (A) (A) (A) (A) (A) (A) (A) (A)
                 (A) (A) (A) (A) (A) (A) (A) (A) (A) (A) (A) (A)
                 (A) (A) (A) (A) (A) (A) (A) (A) (A) (A) (A) (A)
                 (A) (A) (A) (A) (A) (A) (A) (A) (A) (A) (A) (A)
                 (A) (A) (A) (A) (A) (A) (A) (A) (A) (A) (A) (A)
                 (A) (A) (A) (A) (A) (A) (A) (A) (A) (A) (A) (A)
                 (A) (A) (A) (A) (A) (A) (A) (A) (A) (A) (A) (A)
                 (A) (A) (A) (A) (A) (A) (A) (A) (A) (A) (A) (A)
                 (A) (A) (A) (A) (A) (A) (A) (A) (A) (A) (A) (A)
                 (A) (A) (A) (A) (A) (A) (A) (A) (A) (A) (A) (A)
                 (A) (A) (A) (A) (A) (A) (A) (A) (A) (A) (A) (A)
                 (A) (A) (A) (A) (A) (A) (A) (A) (A) (A) (A) (A)
                 (A) (A) (A) (A) (A) (A) (A) (A) (A) (A) (A) (A)
                 (A) (A) (A) (A) (A) (A) (A) (A) (A) (A) (A) (A)
                 (A) (A) (A) (A) (A) (A) (A) (A) (A) (A) (A) (A)
                 (A) (A) (A) (A) (A) (A) (A) (A) (A) (A) (A) (A)
                 (A) (A) (A) (A) (A) (A) (A) (A) (A) (A) (A) (A)
                 (A) (A) (A) (A) (A) (A) (A) (A) (A) (A) (A) (A)
                 (A) (A) (A) (A) (A) (A) (A) (A) (A) (A) (A) (A)
                 (A) (A) (A) (A) (A) (A) (A) (A) (A) (A) (A) (A)
                 (A) (A) (A) (A) (A) (A) (A) (A) (A) (A) (A) (A)
                 (A) (A) (A) (A) (A) (A) (A) (A) (A) (A) (A) (A)
                 (A) (A) (A) (A) (A) (A) (A) (A) (A) (A) (A) (A)
                 (A) (A) (A) (A) (A) (A) (A) (A) (A) (A) (A) (A)
                 (A) (A) (A) (A) (A) (A) (A) (A) (A) (A) (A) (A)
                 (A) (A) (A) (A) (A) (A) (A) (A) (A) (A) (A) (A)
                 (A) (A) (A) (A) (A) (A) (A) (A) (A) (A) (A) (A)
                 (A) (A) (A) (A) (A) (A) (A) (A) (A) (A) (A) (A)
                 (A) (A) (A) (A) (A) (A) (A) (A) (A) (A) (A) (A)
                 (A) (A) (A) (A) (A) (A) (A) (A) (A) (A) (A) (A)
                 (A) (A) (A) (A) (A) (A) (A) (A) (A) (A) (A) (A)
                 (A) (A) (A) (A) (A) (A) (A) (A) (A) (A) (A) (A)
                 (A) (A) (A) (A) (A) (A) (A) (A) (A) (A) (A) (A)
                 (A) (A) (A) (A) (A) (A) (A) (A) (A) (A) (A) (A)
                 (A) (A) (A) (A) (A) (A) (A) (A) (A) (A) (A) (A)
                 (A) (A) (A) (A) (A) (A) (A) (A) (A) (A) (A) (A)
                 (A) (A) (A) (A) (A) (A) (A) (A) (A) (A) (A) (A)
                 (A) (A) (A) (A) (A) (A) (A) (A) (A) (A) (A) (A)
                 (A) (A) (A) (A) (A) (A) (A) (A) (A) (A) (A) (A)
                 (A) (A) (A) (A) (A) (A) (A) (A) (A) (A) (A) (A)
                 (A) (A) (A) (A) (A) (A) (A) (A) (A) (A) (A) (A)
                 (A) (A) (A) (A) (A) (A) (A) (A) (A) (A) (A) (A)
                 (A) (A) (A) (A) (A) (A) (A) (A) (A) (A) (A) (A)
                 (A) (A) (A) (A) (A) (A) (A) (A) (A) (A) (A) (A)
                 (A) (A) (A) (A) (A) (A) (A) (A) (A) (A) (A) (A)
                 (A) (A) (A) (A) (A) (A) (A) (A) (A) (A) (A) (A)
                 (A) (A) (A) (A) (A) (A) (A) (A) (A) (A) (A) (A)
                 (A) (A) (A) (A) (A) (A) (A) (A) (A) (A) (A) (A)
                 (A) (A) (A) (A) (A) (A) (A) (A) (A) (A) (A) (A)
                 (A) (A) (A) (A) (A) (A) (A) (A) (A) (A) (A) (A)
                 (A) (A) (A) (A) (A) (A) (A) (A) (A) (A) (A) (A)
                 (A) (A) (A) (A) (A) (A) (A) (A) (A) (A) (A) (A)
                 (A) (A) (A) (A) (A) (A) (A) (A) (A) (A) (A) (A)
                 (A) (A) (A) (A) (A) (A) (A) (A) (A) (A) (A) (A)
                 (A) (A) (A) (A) (A) (A) (A) (A) (A) (A) (A) (A)
                 (A) (A) (A) (A) (A) (A) (A) (A) (A) (A) (A) (A)
                 (A) (A) (A) (A) (A) (A) (A) (A) (A) (A) (A) (A)
                 (A) (A) (A) (A) (A) (A) (A) (A) (A) (A) (A) (A)
                 (A) (A) (A) (A) (A) (A) (A) (A) (A) (A) (A) (A)
                 (A) (A) (A) (A) (A) (A) (A) (A) (A) (A) (A) (A)
                 (A) (A) (A) (A) (A) (A) (A) (A) (A) (A) (A) (A)
                 (A) (A) (A) (A) (A) (A) (A) (A) (A) (A) (A) (A)
                 (A) (A) (A) (A) (A) (A) (A) (A) (A) (A) (A) (A)
                 (A) (A) (A) (A) (A) (A) (A) (A) (A) (A) (A) (A)
                 (A) (A) (A) (A) (A) (A) (A) (A) (A) (A) (A) (A)
                 (A) (A) (A) (A) (A) (A) (A) (A) (A) (A) (A) (A)
                 (A) (A) (A) (A) (A) (A) (A) (A) (A) (A) (A) (A)
                 (A) (A) (A) (A) (A) (A) (A) (A) (A) (A) (A) (A)
                 (A) (A) (A) (A) (A) (A) (A) (A) (A) (A) (A) (A)
                 (A) (A) (A) (A) (A) (A) (A) (A) (A) (A) (A) (A)
                 (A) (A) (A) (A) (A) (A) (A) (A) (A) (A) (A) (A)
                 (A) (A) (A) (A) (A) (A) (A) (A) (A) (A) (A) (A)
                 (A) (A) (A) (A) (A) (A) (A) (A) (A) (A) (A) (A)
                 (A) (A) (A) (A) (A) (A) (A) (A) (A) (A) (A) (A)
                 (A) (A) (A) (A) (A) (A) (A) (A) (A) (A) (A) (A)
                 (A) (A) (A) (A) (A) (A) (A) (A) (A) (A) (A) (A)
                 (A) (A) (A) (A) (A) (A) (A) (A) (A) (A) (A) (A)
                 (A) (A) (A) (A) (A) (A) (A) (A) (A) (A) (A) (A)
                 (A) (A) (A) (A) (A) (A) (A) (A) (A) (A) (A) (A)
                 (A) (A) (A) (A) (A) (A) (A) (A) (A) (A) (A) (A)
                 (A) (A) (A) (A) (A) (A) (A) (A) (A) (A) (A) (A)
                 (A) (A) (A) (A) (A) (A) (A) (A) (A) (A) (A) (A)
                 (A) (A) (A) (A) (A) (A) (A) (A) (A) (A) (A) (A)
                 (A) (A) (A) (A) (A) (A) (A) (A) (A) (A) (A) (A)
                 (A) (A) (A) (A) (A) (A) (A) (A) (A) (A) (A) (A)
                 (A) (A) (A) (A) (A) (A) (A) (A) (A) (A) (A) (A)
                 (A) (A) (A) (A) (A) (A) (A) (A) (A) (A) (A) (A)
                 (A) (A) (A) (A) (A) (A) (A) (A) (A) (A)
 The electronic state is 1-A.
 Alpha  occ. eigenvalues -- -101.61273-101.60530 -77.26580 -77.26528 -19.27024
 Alpha  occ. eigenvalues --  -10.31543 -10.31008 -10.28182 -10.26629 -10.26439
 Alpha  occ. eigenvalues --  -10.26191 -10.26189 -10.26087 -10.25898 -10.25876
 Alpha  occ. eigenvalues --  -10.25784 -10.25504 -10.25497 -10.25322 -10.25143
 Alpha  occ. eigenvalues --  -10.25114 -10.25049 -10.25041 -10.24921 -10.24901
 Alpha  occ. eigenvalues --  -10.24825 -10.24807 -10.24793 -10.24720 -10.24683
 Alpha  occ. eigenvalues --  -10.24645 -10.24527 -10.24431 -10.24250 -10.24088
 Alpha  occ. eigenvalues --  -10.23792 -10.23779 -10.23757 -10.23650 -10.23513
 Alpha  occ. eigenvalues --  -10.23468 -10.23313 -10.23102 -10.22999  -9.43773
 Alpha  occ. eigenvalues --   -9.43036  -7.16979  -7.16482  -7.16455  -7.16253
 Alpha  occ. eigenvalues --   -7.15762  -7.15691  -6.65691  -6.65686  -4.79307
 Alpha  occ. eigenvalues --   -4.79294  -4.79279  -4.79251  -4.79010  -4.79000
 Alpha  occ. eigenvalues --   -3.51001  -2.18875  -2.18617  -2.15148  -1.14163
 Alpha  occ. eigenvalues --   -0.91106  -0.90904  -0.89969  -0.89376  -0.88665
 Alpha  occ. eigenvalues --   -0.88157  -0.86157  -0.81725  -0.81002  -0.80044
 Alpha  occ. eigenvalues --   -0.78755  -0.78505  -0.78235  -0.77791  -0.77632
 Alpha  occ. eigenvalues --   -0.77384  -0.77062  -0.76887  -0.76246  -0.73896
 Alpha  occ. eigenvalues --   -0.72807  -0.72669  -0.69687  -0.69176  -0.67303
 Alpha  occ. eigenvalues --   -0.67129  -0.64209  -0.63906  -0.63306  -0.63180
 Alpha  occ. eigenvalues --   -0.62745  -0.62447  -0.62169  -0.61949  -0.60004
 Alpha  occ. eigenvalues --   -0.59196  -0.58097  -0.57784  -0.54580  -0.54263
 Alpha  occ. eigenvalues --   -0.53561  -0.53022  -0.52582  -0.51370  -0.50706
 Alpha  occ. eigenvalues --   -0.49635  -0.49210  -0.48475  -0.48289  -0.48228
 Alpha  occ. eigenvalues --   -0.48001  -0.47500  -0.47448  -0.47179  -0.46888
 Alpha  occ. eigenvalues --   -0.46704  -0.46512  -0.45097  -0.44835  -0.44601
 Alpha  occ. eigenvalues --   -0.44472  -0.44136  -0.43995  -0.43540  -0.43480
 Alpha  occ. eigenvalues --   -0.43031  -0.41917  -0.41852  -0.41628  -0.41283
 Alpha  occ. eigenvalues --   -0.41001  -0.40680  -0.40456  -0.39828  -0.39119
 Alpha  occ. eigenvalues --   -0.39073  -0.38430  -0.38159  -0.37907  -0.37532
 Alpha  occ. eigenvalues --   -0.37356  -0.37013  -0.36783  -0.36739  -0.36551
 Alpha  occ. eigenvalues --   -0.36078  -0.36019  -0.35594  -0.35251  -0.34935
 Alpha  occ. eigenvalues --   -0.34303  -0.32715  -0.31254  -0.30695  -0.30164
 Alpha  occ. eigenvalues --   -0.29821  -0.29228  -0.28775  -0.28197  -0.28101
 Alpha  occ. eigenvalues --   -0.27930  -0.27832  -0.27432  -0.27174  -0.26821
 Alpha  occ. eigenvalues --   -0.26352  -0.25987  -0.25461  -0.24582  -0.24106
 Alpha  occ. eigenvalues --   -0.23622  -0.22720  -0.22531
 Alpha virt. eigenvalues --   -0.07548  -0.05557  -0.04520  -0.03906  -0.03744
 Alpha virt. eigenvalues --   -0.03251  -0.03172  -0.02878  -0.02387  -0.01777
 Alpha virt. eigenvalues --   -0.01581  -0.01162  -0.00578   0.01046   0.01910
 Alpha virt. eigenvalues --    0.03488   0.03700   0.03840   0.04498   0.05022
 Alpha virt. eigenvalues --    0.05167   0.05609   0.06125   0.06601   0.06730
 Alpha virt. eigenvalues --    0.06999   0.07324   0.07752   0.07868   0.08159
 Alpha virt. eigenvalues --    0.08372   0.08797   0.09163   0.09242   0.09507
 Alpha virt. eigenvalues --    0.09694   0.09970   0.10364   0.10484   0.10533
 Alpha virt. eigenvalues --    0.10705   0.10987   0.11159   0.11398   0.11719
 Alpha virt. eigenvalues --    0.11829   0.12040   0.12306   0.12715   0.12822
 Alpha virt. eigenvalues --    0.13080   0.13478   0.13689   0.13931   0.14102
 Alpha virt. eigenvalues --    0.14847   0.14911   0.15150   0.15315   0.15426
 Alpha virt. eigenvalues --    0.15834   0.15944   0.16161   0.16771   0.17032
 Alpha virt. eigenvalues --    0.17466   0.17785   0.17963   0.18203   0.18446
 Alpha virt. eigenvalues --    0.18534   0.19127   0.19493   0.19599   0.19792
 Alpha virt. eigenvalues --    0.20039   0.20333   0.20744   0.20921   0.21059
 Alpha virt. eigenvalues --    0.21207   0.21455   0.21822   0.21994   0.22131
 Alpha virt. eigenvalues --    0.22277   0.22506   0.22622   0.22886   0.23020
 Alpha virt. eigenvalues --    0.23626   0.23699   0.24046   0.24308   0.24477
 Alpha virt. eigenvalues --    0.24571   0.24695   0.24929   0.25142   0.25318
 Alpha virt. eigenvalues --    0.25473   0.25602   0.25852   0.26054   0.26161
 Alpha virt. eigenvalues --    0.26441   0.26552   0.26974   0.27305   0.27460
 Alpha virt. eigenvalues --    0.27535   0.27803   0.28083   0.28131   0.28583
 Alpha virt. eigenvalues --    0.28843   0.28911   0.29377   0.29518   0.29743
 Alpha virt. eigenvalues --    0.30069   0.30328   0.30527   0.30704   0.30901
 Alpha virt. eigenvalues --    0.31093   0.31282   0.31615   0.31929   0.32369
 Alpha virt. eigenvalues --    0.32806   0.32839   0.33152   0.33436   0.33739
 Alpha virt. eigenvalues --    0.33985   0.34158   0.34235   0.34422   0.34680
 Alpha virt. eigenvalues --    0.34950   0.35087   0.35323   0.35783   0.36079
 Alpha virt. eigenvalues --    0.36298   0.36464   0.36926   0.37067   0.37265
 Alpha virt. eigenvalues --    0.37516   0.37620   0.37850   0.38112   0.38365
 Alpha virt. eigenvalues --    0.38511   0.38582   0.38730   0.38884   0.39096
 Alpha virt. eigenvalues --    0.39289   0.39575   0.39864   0.39999   0.40220
 Alpha virt. eigenvalues --    0.40473   0.40682   0.40799   0.40963   0.41101
 Alpha virt. eigenvalues --    0.41189   0.41358   0.41592   0.41748   0.41867
 Alpha virt. eigenvalues --    0.42074   0.42162   0.42294   0.42684   0.42802
 Alpha virt. eigenvalues --    0.42910   0.42973   0.43196   0.43338   0.43477
 Alpha virt. eigenvalues --    0.43669   0.43974   0.44226   0.44349   0.44400
 Alpha virt. eigenvalues --    0.44704   0.44907   0.45123   0.45189   0.45422
 Alpha virt. eigenvalues --    0.45602   0.45853   0.46072   0.46274   0.46451
 Alpha virt. eigenvalues --    0.46737   0.46897   0.47160   0.47222   0.47444
 Alpha virt. eigenvalues --    0.47593   0.47903   0.48351   0.48502   0.48672
 Alpha virt. eigenvalues --    0.48954   0.49361   0.49448   0.49513   0.49613
 Alpha virt. eigenvalues --    0.49740   0.50136   0.50336   0.50599   0.50713
 Alpha virt. eigenvalues --    0.50746   0.51004   0.51292   0.51330   0.51688
 Alpha virt. eigenvalues --    0.52118   0.52237   0.52451   0.52973   0.53251
 Alpha virt. eigenvalues --    0.53418   0.53672   0.53980   0.54151   0.54255
 Alpha virt. eigenvalues --    0.54352   0.54576   0.54977   0.55422   0.55562
 Alpha virt. eigenvalues --    0.56120   0.56377   0.56686   0.57003   0.57193
 Alpha virt. eigenvalues --    0.57976   0.58083   0.58367   0.58647   0.59125
 Alpha virt. eigenvalues --    0.59589   0.59949   0.60098   0.60377   0.60550
 Alpha virt. eigenvalues --    0.61045   0.61158   0.61772   0.62363   0.62416
 Alpha virt. eigenvalues --    0.62965   0.63077   0.63613   0.63873   0.64133
 Alpha virt. eigenvalues --    0.64318   0.64384   0.65138   0.65244   0.65722
 Alpha virt. eigenvalues --    0.65805   0.66033   0.66237   0.66566   0.67001
 Alpha virt. eigenvalues --    0.67278   0.67406   0.67541   0.67711   0.67964
 Alpha virt. eigenvalues --    0.68238   0.68864   0.69016   0.69182   0.69461
 Alpha virt. eigenvalues --    0.69566   0.69920   0.69973   0.70251   0.70585
 Alpha virt. eigenvalues --    0.70728   0.71176   0.71230   0.71716   0.71936
 Alpha virt. eigenvalues --    0.72201   0.72498   0.72629   0.72784   0.73469
 Alpha virt. eigenvalues --    0.73529   0.73572   0.74043   0.74221   0.74343
 Alpha virt. eigenvalues --    0.74793   0.74826   0.75493   0.75525   0.75799
 Alpha virt. eigenvalues --    0.76286   0.76428   0.76465   0.77031   0.77177
 Alpha virt. eigenvalues --    0.77448   0.77704   0.77873   0.78130   0.78673
 Alpha virt. eigenvalues --    0.78825   0.79237   0.79476   0.79998   0.80089
 Alpha virt. eigenvalues --    0.80346   0.80562   0.80917   0.81115   0.81496
 Alpha virt. eigenvalues --    0.81793   0.82143   0.82436   0.82904   0.82981
 Alpha virt. eigenvalues --    0.83631   0.83710   0.83900   0.84025   0.84332
 Alpha virt. eigenvalues --    0.84726   0.84923   0.85101   0.85405   0.85882
 Alpha virt. eigenvalues --    0.86480   0.86672   0.86949   0.87328   0.88033
 Alpha virt. eigenvalues --    0.88334   0.88647   0.88709   0.89021   0.89209
 Alpha virt. eigenvalues --    0.89505   0.90035   0.90157   0.90375   0.90432
 Alpha virt. eigenvalues --    0.90880   0.91151   0.91460   0.92036   0.92222
 Alpha virt. eigenvalues --    0.92841   0.92998   0.93296   0.93780   0.94029
 Alpha virt. eigenvalues --    0.94546   0.94795   0.95037   0.95416   0.95593
 Alpha virt. eigenvalues --    0.95799   0.96160   0.96534   0.96977   0.97145
 Alpha virt. eigenvalues --    0.97662   0.98190   0.98555   0.99171   0.99365
 Alpha virt. eigenvalues --    0.99506   0.99913   1.00286   1.00562   1.00882
 Alpha virt. eigenvalues --    1.01446   1.02093   1.02226   1.02949   1.03999
 Alpha virt. eigenvalues --    1.04175   1.04487   1.05257   1.05614   1.05987
 Alpha virt. eigenvalues --    1.06089   1.06707   1.07160   1.07688   1.08036
 Alpha virt. eigenvalues --    1.08470   1.08665   1.09054   1.09424   1.09566
 Alpha virt. eigenvalues --    1.09730   1.10237   1.10376   1.10581   1.10967
 Alpha virt. eigenvalues --    1.11235   1.11427   1.11635   1.12205   1.12430
 Alpha virt. eigenvalues --    1.13136   1.13473   1.13747   1.13967   1.14534
 Alpha virt. eigenvalues --    1.14952   1.15187   1.15866   1.16212   1.16492
 Alpha virt. eigenvalues --    1.17051   1.17272   1.17537   1.17922   1.18462
 Alpha virt. eigenvalues --    1.18869   1.19161   1.19314   1.20057   1.20287
 Alpha virt. eigenvalues --    1.20829   1.20852   1.21317   1.21760   1.21919
 Alpha virt. eigenvalues --    1.22226   1.22841   1.23161   1.23464   1.23683
 Alpha virt. eigenvalues --    1.23949   1.24066   1.24479   1.24763   1.25433
 Alpha virt. eigenvalues --    1.25714   1.26125   1.26386   1.26570   1.26933
 Alpha virt. eigenvalues --    1.27197   1.27620   1.27750   1.28207   1.28313
 Alpha virt. eigenvalues --    1.28712   1.28770   1.29064   1.29384   1.29632
 Alpha virt. eigenvalues --    1.29701   1.30199   1.30621   1.30906   1.31065
 Alpha virt. eigenvalues --    1.31801   1.31851   1.32132   1.32597   1.32724
 Alpha virt. eigenvalues --    1.33160   1.33403   1.33943   1.34240   1.34547
 Alpha virt. eigenvalues --    1.34763   1.35161   1.35411   1.35690   1.35930
 Alpha virt. eigenvalues --    1.36381   1.36445   1.37175   1.38010   1.38511
 Alpha virt. eigenvalues --    1.38841   1.39474   1.39883   1.40125   1.40520
 Alpha virt. eigenvalues --    1.40898   1.41515   1.41640   1.42189   1.42424
 Alpha virt. eigenvalues --    1.43159   1.43959   1.44033   1.44342   1.44671
 Alpha virt. eigenvalues --    1.45296   1.45500   1.45580   1.46419   1.46623
 Alpha virt. eigenvalues --    1.47124   1.47368   1.47516   1.47791   1.48211
 Alpha virt. eigenvalues --    1.49230   1.49542   1.49971   1.50140   1.50401
 Alpha virt. eigenvalues --    1.50621   1.51004   1.51411   1.51644   1.52450
 Alpha virt. eigenvalues --    1.52562   1.52976   1.53280   1.53776   1.54112
 Alpha virt. eigenvalues --    1.54599   1.54917   1.55080   1.55525   1.55899
 Alpha virt. eigenvalues --    1.56225   1.56453   1.56680   1.57092   1.57337
 Alpha virt. eigenvalues --    1.57518   1.57988   1.58366   1.58696   1.59167
 Alpha virt. eigenvalues --    1.59289   1.59808   1.60137   1.60626   1.61197
 Alpha virt. eigenvalues --    1.61490   1.61731   1.61959   1.62429   1.62618
 Alpha virt. eigenvalues --    1.62914   1.63100   1.63297   1.63763   1.64146
 Alpha virt. eigenvalues --    1.64297   1.64825   1.65182   1.65302   1.65726
 Alpha virt. eigenvalues --    1.66105   1.66815   1.66889   1.67499   1.67656
 Alpha virt. eigenvalues --    1.67952   1.68004   1.68356   1.68768   1.68915
 Alpha virt. eigenvalues --    1.69119   1.69245   1.69868   1.69969   1.70665
 Alpha virt. eigenvalues --    1.70943   1.71099   1.71218   1.71459   1.71877
 Alpha virt. eigenvalues --    1.72113   1.72587   1.73038   1.73368   1.73630
 Alpha virt. eigenvalues --    1.73736   1.74057   1.74100   1.74763   1.75331
 Alpha virt. eigenvalues --    1.75583   1.75860   1.76129   1.76560   1.76978
 Alpha virt. eigenvalues --    1.77189   1.77383   1.78261   1.78537   1.78995
 Alpha virt. eigenvalues --    1.79283   1.79837   1.79897   1.80411   1.81011
 Alpha virt. eigenvalues --    1.81354   1.81449   1.82181   1.82396   1.82550
 Alpha virt. eigenvalues --    1.83220   1.83528   1.83946   1.84098   1.84662
 Alpha virt. eigenvalues --    1.85059   1.85316   1.86554   1.86845   1.87120
 Alpha virt. eigenvalues --    1.87344   1.87899   1.88134   1.88488   1.89325
 Alpha virt. eigenvalues --    1.89598   1.90132   1.90782   1.91349   1.92077
 Alpha virt. eigenvalues --    1.92229   1.92689   1.93047   1.93741   1.93844
 Alpha virt. eigenvalues --    1.94460   1.94911   1.95266   1.95753   1.96136
 Alpha virt. eigenvalues --    1.96673   1.96937   1.97355   1.97528   1.98123
 Alpha virt. eigenvalues --    1.98352   1.98449   1.99118   1.99831   2.00187
 Alpha virt. eigenvalues --    2.00475   2.00805   2.01380   2.01764   2.01903
 Alpha virt. eigenvalues --    2.02325   2.02591   2.03165   2.03614   2.04022
 Alpha virt. eigenvalues --    2.04244   2.04455   2.04994   2.05509   2.06046
 Alpha virt. eigenvalues --    2.06247   2.07067   2.07525   2.07689   2.08079
 Alpha virt. eigenvalues --    2.08480   2.08750   2.09037   2.09369   2.09583
 Alpha virt. eigenvalues --    2.09935   2.10476   2.10723   2.11243   2.11414
 Alpha virt. eigenvalues --    2.11627   2.12111   2.12335   2.12693   2.13484
 Alpha virt. eigenvalues --    2.13720   2.13879   2.14227   2.14766   2.14826
 Alpha virt. eigenvalues --    2.15322   2.15476   2.15743   2.16377   2.16756
 Alpha virt. eigenvalues --    2.17084   2.17401   2.17845   2.17864   2.18196
 Alpha virt. eigenvalues --    2.18651   2.18727   2.18877   2.19514   2.19727
 Alpha virt. eigenvalues --    2.19851   2.20011   2.20622   2.20906   2.20968
 Alpha virt. eigenvalues --    2.21436   2.21599   2.22400   2.22736   2.23345
 Alpha virt. eigenvalues --    2.23487   2.23550   2.23716   2.24112   2.24182
 Alpha virt. eigenvalues --    2.24824   2.25592   2.25767   2.25990   2.26781
 Alpha virt. eigenvalues --    2.27018   2.27496   2.28036   2.28618   2.28792
 Alpha virt. eigenvalues --    2.29199   2.29661   2.29920   2.30780   2.31037
 Alpha virt. eigenvalues --    2.31220   2.31480   2.31558   2.31977   2.33229
 Alpha virt. eigenvalues --    2.33946   2.34394   2.34929   2.35872   2.36063
 Alpha virt. eigenvalues --    2.36983   2.37340   2.38176   2.38782   2.39182
 Alpha virt. eigenvalues --    2.39486   2.39667   2.40213   2.40562   2.40962
 Alpha virt. eigenvalues --    2.41187   2.41608   2.42110   2.42911   2.43039
 Alpha virt. eigenvalues --    2.43449   2.43524   2.44421   2.44552   2.45371
 Alpha virt. eigenvalues --    2.45481   2.45701   2.46336   2.46910   2.47103
 Alpha virt. eigenvalues --    2.47637   2.47775   2.48319   2.48873   2.48939
 Alpha virt. eigenvalues --    2.49198   2.49520   2.49849   2.50411   2.50708
 Alpha virt. eigenvalues --    2.51089   2.51653   2.52088   2.53047   2.53236
 Alpha virt. eigenvalues --    2.53340   2.54005   2.54752   2.54931   2.55186
 Alpha virt. eigenvalues --    2.55403   2.55790   2.56084   2.56795   2.57059
 Alpha virt. eigenvalues --    2.57440   2.58032   2.58204   2.58709   2.59226
 Alpha virt. eigenvalues --    2.59318   2.59578   2.59927   2.60512   2.60554
 Alpha virt. eigenvalues --    2.61291   2.61672   2.61865   2.62434   2.62752
 Alpha virt. eigenvalues --    2.62903   2.63026   2.63518   2.63590   2.63975
 Alpha virt. eigenvalues --    2.64166   2.64514   2.64559   2.64986   2.65249
 Alpha virt. eigenvalues --    2.65424   2.65803   2.66177   2.66331   2.66370
 Alpha virt. eigenvalues --    2.66839   2.66976   2.67180   2.67462   2.67717
 Alpha virt. eigenvalues --    2.67990   2.68383   2.68632   2.68828   2.69151
 Alpha virt. eigenvalues --    2.69279   2.69992   2.70108   2.70320   2.70968
 Alpha virt. eigenvalues --    2.71235   2.71512   2.71905   2.72300   2.72629
 Alpha virt. eigenvalues --    2.72706   2.73009   2.73390   2.73552   2.73966
 Alpha virt. eigenvalues --    2.74543   2.74553   2.74732   2.75368   2.75616
 Alpha virt. eigenvalues --    2.75883   2.76478   2.76566   2.76934   2.77084
 Alpha virt. eigenvalues --    2.77493   2.77770   2.77848   2.78326   2.78524
 Alpha virt. eigenvalues --    2.78674   2.79028   2.79343   2.79767   2.80231
 Alpha virt. eigenvalues --    2.80334   2.80685   2.80899   2.81208   2.81730
 Alpha virt. eigenvalues --    2.81991   2.82234   2.82594   2.82741   2.83090
 Alpha virt. eigenvalues --    2.83298   2.83738   2.84013   2.84673   2.84795
 Alpha virt. eigenvalues --    2.85233   2.85274   2.85619   2.86036   2.86342
 Alpha virt. eigenvalues --    2.86568   2.86996   2.87241   2.87422   2.87727
 Alpha virt. eigenvalues --    2.87880   2.88300   2.88757   2.88988   2.89275
 Alpha virt. eigenvalues --    2.89502   2.89906   2.90456   2.90654   2.90957
 Alpha virt. eigenvalues --    2.91222   2.91917   2.92313   2.92525   2.92674
 Alpha virt. eigenvalues --    2.93468   2.93534   2.93588   2.93850   2.94431
 Alpha virt. eigenvalues --    2.94452   2.95242   2.95503   2.96454   2.96673
 Alpha virt. eigenvalues --    2.96871   2.97734   2.97996   2.98432   2.98857
 Alpha virt. eigenvalues --    2.99544   3.00350   3.00663   3.01647   3.01919
 Alpha virt. eigenvalues --    3.02740   3.03153   3.03804   3.04588   3.04945
 Alpha virt. eigenvalues --    3.05928   3.06049   3.06659   3.07031   3.07538
 Alpha virt. eigenvalues --    3.07718   3.08227   3.08516   3.08641   3.09520
 Alpha virt. eigenvalues --    3.09930   3.10467   3.10801   3.11102   3.11880
 Alpha virt. eigenvalues --    3.11969   3.12446   3.12743   3.12926   3.13132
 Alpha virt. eigenvalues --    3.13297   3.13876   3.13982   3.14677   3.15092
 Alpha virt. eigenvalues --    3.15239   3.15545   3.15801   3.16138   3.16369
[...]
                                                    1057(r),1073(r),1339(r)
                                                    631(v),756(r),607(r),1333(r)
                                                    349(r),652(r),1210(r)
                                                    1072(r),1501(v),478(v)
                                                    1054(r),210(v),626(v),898(r)
                                                    855(r),364(r),599(r),872(v)
                                                    1026(r),604(r),173(g)
                                                    1020(r),1466(v),1475(v)
                                                    902(r),214(v),506(r),1028(r)
                                                    1459(v),653(r),1473(v)
                                                    901(r),182(g),1230(r)
                                                    1205(r),651(r),1056(r)
                                                    480(v),1229(r),896(r),635(v)
                                                    477(v),1570(r),630(v)
                                                    1356(r),1587(r),1477(v)
                                                    830(r),216(v),1233(r),236(r)
                                                    1240(r),1458(g),522(r)
                                                    1568(r),1231(r),825(r)
                                                    1031(r),1175(r),1209(r)
                                                    633(v),341(r),496(r),1177(r)
                                                    1307(r)
  1519. BD*(   1) C   2 - C   3          0.02187     0.51520   
  1520. BD*(   2) C   2 - C   3          0.37223     0.00955  1525(v),1530(v),1516(v)
                                                    235(g)
  1521. BD*(   1) C   2 - C   7          0.03248     0.49807   
  1522. BD*(   1) C   3 - C   4          0.01408     0.52275   
  1523. BD*(   1) C   3 - H  24          0.01548     0.39789   
  1524. BD*(   1) C   4 - C   5          0.01282     0.52060   
  1525. BD*(   2) C   4 - C   5          0.33986     0.01093  1520(v),1530(v),262(g)
                                                    288(g)
  1526. BD*(   1) C   4 - H  26          0.01292     0.39157   
  1527. BD*(   1) C   5 - C   6          0.02096     0.51699   
  1528. BD*(   1) C   5 - H  25          0.01459     0.38989   
  1529. BD*(   1) C   6 - C   7          0.03855     0.50827   
  1530. BD*(   2) C   6 - C   7          0.37829     0.01271  1525(v),1520(v),1584(r)
                                                    1535(v),1577(r),1536(v)
                                                    1533(v),288(v)
  1531. BD*(   1) C   6 - C   9          0.03814     0.34543   
  1532. BD*(   1) C   7 - O   8          0.03440     0.31580   
  1533. BD*(   1) O   8 - C  46          0.03395     0.32416   
  1534. BD*(   1) C   9 - C  10          0.01858     0.32175   
  1535. BD*(   1) C   9 - C  11          0.02741     0.30180   
  1536. BD*(   1) C   9 - C  45          0.03809     0.33962   
  1537. BD*(   1) C  10 - H  27          0.00668     0.35850   
  1538. BD*(   1) C  10 - H  28          0.00683     0.35874   
  1539. BD*(   1) C  10 - H  62          0.00690     0.35789   
  1540. BD*(   1) C  11 - H  29          0.00613     0.37711   
  1541. BD*(   1) C  11 - H  30          0.00694     0.36421   
  1542. BD*(   1) C  11 - H  63          0.00705     0.36309   
  1543. BD*(   1) C  12 - C  13          0.02607     0.51591   
  1544. BD*(   2) C  12 - C  13          0.36845     0.01355  1549(v),1554(v),1584(r)
                                                    1588(r),495(g),1559(r)
                                                    1561(r),1517(v),522(v)
  1545. BD*(   1) C  12 - C  17          0.02423     0.50872   
  1546. BD*(   1) C  13 - C  14          0.01599     0.52945   
  1547. BD*(   1) C  13 - H  35          0.01696     0.40797   
  1548. BD*(   1) C  14 - C  15          0.01470     0.52884   
  1549. BD*(   2) C  14 - C  15          0.32184     0.01612  1544(v),1554(v),1593(r)
                                                    548(g),522(g)
  1550. BD*(   1) C  14 - H  36          0.01362     0.39278   
  1551. BD*(   1) C  15 - C  16          0.01503     0.52621   
  1552. BD*(   1) C  15 - H  37          0.01325     0.39497   
  1553. BD*(   1) C  16 - C  17          0.01607     0.53906   
  1554. BD*(   2) C  16 - C  17          0.30027     0.02295  1549(v),1544(v),1561(r)
                                                    1559(r),574(g),1598(r)
                                                    1588(r)
  1555. BD*(   1) C  16 - H  38          0.01382     0.39480   
  1556. BD*(   1) C  17 - H  39          0.01539     0.40838   
  1557. BD*(   1) C  18 - C  19          0.02642     0.50389   
  1558. BD*(   1) C  18 - C  23          0.02377     0.52095   
  1559. BD*(   2) C  18 - C  23          0.35250     0.02165  1565(v),1561(v),1554(r)
                                                    1544(r),756(g),1515(v)
                                                    1516(v)
  1560. BD*(   1) C  19 - C  21          0.01580     0.53508   
  1561. BD*(   2) C  19 - C  21          0.31802     0.01962  1559(v),1565(v),1554(r)
                                                    704(g),1544(r)
  1562. BD*(   1) C  19 - H  31          0.01506     0.40070   
  1563. BD*(   1) C  20 - C  21          0.01465     0.52830   
  1564. BD*(   1) C  20 - C  22          0.01444     0.53308   
  1565. BD*(   2) C  20 - C  22          0.31461     0.02249  1559(v),1561(v),678(g)
                                                    730(g)
  1566. BD*(   1) C  20 - H  32          0.01296     0.39911   
  1567. BD*(   1) C  21 - H  74          0.01361     0.39422   
  1568. BD*(   1) C  22 - C  23          0.01595     0.54133   
  1569. BD*(   1) C  22 - H  33          0.01334     0.40278   
  1570. BD*(   1) C  23 - H  34          0.01725     0.43495   
  1571. BD*(   1) P  40 - C  41          0.06869     0.18818   
  1572. BD*(   1) P  40 - C  47          0.06636     0.20976   
  1573. BD*(   1) P  40 - C  53          0.07331     0.20517   
  1574. BD*(   1) P  40 -Pd  75          0.16356     0.60506  1518(g),860(g),1441(g)
                                                    1451(g),1443(g),1452(g)
                                                    1450(g),180(v),1442(g)
                                                    1444(g),1448(g),1454(g)
                                                    1455(g),1446(g),1453(g)
                                                    1447(g),1445(g),1491(v)
                                                    1437(g),1045(v),1463(v)
                                                    1436(g),869(g),1386(r)
                                                    625(r),1202(v),1440(g)
                                                    1449(g),188(v),888(v)
                                                    1464(v),208(r),1615(g)
                                                    889(v),209(r),190(v),189(v)
                                                    1391(r),1438(g),868(g)
                                                    865(g),186(v),469(r),891(v)
                                                    1465(v),780(r),1019(r)
                                                    1049(v),629(r),1489(v)
                                                    1021(r),1201(v),1381(r)
                                                    867(g),339(r),601(r),187(v)
                                                    1495(v),873(g),365(r),185(v)
                                                    862(g),193(v),1071(r)
                                                    1494(v),495(r),1023(r)
                                                    468(r),1490(v),861(g)
                                                    1492(v),758(r),654(r),470(r)
                                                    815(r),624(r),213(r),1439(g)
                                                    1488(v),864(g),210(r),890(v)
                                                    1046(v),871(g),1047(v)
                                                    343(r),1204(v),898(v),893(v)
                                                    1057(v),1493(v),1333(r)
                                                    1026(r),916(r),1073(r)
                                                    1054(v),1210(v),1044(v)
                                                    1072(r),1487(v),917(r)
                                                    607(r),1339(r),901(v),652(r)
                                                    173(g),863(g),631(r),341(r)
                                                    196(v),471(r),1600(r)
                                                    1501(v),830(r),1200(v)
                                                    182(v),872(g),1056(v)
                                                    1020(r),599(r),1460(v)
                                                    831(r),604(r),1028(r)
                                                    1230(r),756(r),626(r),200(v)
                                                    1205(v),349(r),216(r)
                                                    1597(r),522(r),364(r),651(r)
                                                    902(v),1473(v),899(v)
                                                    1475(v),214(r),896(v),633(r)
                                                    1233(r),1229(r),1457(g)
                                                    1176(r),1178(r),761(r)
                                                    653(r),506(r),1175(r),478(r)
                                                    918(r),1177(r),1048(v)
                                                    1231(r),635(r),477(r)
                                                    1240(r)
  1575. BD*(   1) C  41 - C  42          0.02158     0.49908   
  1576. BD*(   1) C  41 - C  46          0.03468     0.49787   
  1577. BD*(   2) C  41 - C  46          0.40055     0.00034  1579(v),1584(v),1572(v)
                                                    1602(r),1530(r),1573(v)
                                                    891(g)
  1578. BD*(   1) C  42 - C  43          0.01477     0.52308   
  1579. BD*(   2) C  42 - C  43          0.31450     0.00990  1584(v),1577(v),942(g)
                                                    1588(r)
  1580. BD*(   1) C  42 - H  59          0.01466     0.39441   
  1581. BD*(   1) C  43 - C  44          0.01317     0.51644   
  1582. BD*(   1) C  43 - H  61          0.01320     0.38605   
  1583. BD*(   1) C  44 - C  45          0.02042     0.51743   
  1584. BD*(   2) C  44 - C  45          0.33705     0.01355  1579(v),1577(v),1544(r)
                                                    1530(r),1535(v),968(g)
  1585. BD*(   1) C  44 - H  60          0.01474     0.38644   
  1586. BD*(   1) C  45 - C  46          0.03788     0.49785   
  1587. BD*(   1) C  47 - C  48          0.02839     0.51852   
  1588. BD*(   2) C  47 - C  48          0.36598     0.01059  1593(v),1598(v),1544(r)
                                                    1071(g),1573(v),1579(r)
                                                    1554(r)
  1589. BD*(   1) C  47 - C  52          0.02338     0.50214   
  1590. BD*(   1) C  48 - C  49          0.01597     0.52742   
  1591. BD*(   1) C  48 - H  66          0.01673     0.40597   
  1592. BD*(   1) C  49 - C  50          0.01473     0.52295   
  1593. BD*(   2) C  49 - C  50          0.32230     0.01233  1588(v),1598(v),1549(r)
                                                    1124(g),1098(g)
  1594. BD*(   1) C  49 - H  67          0.01358     0.39278   
  1595. BD*(   1) C  50 - C  51          0.01471     0.52141   
  1596. BD*(   1) C  50 - H  68          0.01313     0.39277   
  1597. BD*(   1) C  51 - C  52          0.01641     0.53207   
  1598. BD*(   2) C  51 - C  52          0.30799     0.01509  1593(v),1588(v),1150(g)
                                                    1554(r),1176(g)
  1599. BD*(   1) C  51 - H  69          0.01351     0.39342   
  1600. BD*(   1) C  52 - H  70          0.01474     0.41246   
  1601. BD*(   1) C  53 - C  54          0.02538     0.52712   
  1602. BD*(   2) C  53 - C  54          0.36948     0.02269  1607(v),1612(v),1571(v)
                                                    1228(g),1577(r)
  1603. BD*(   1) C  53 - C  58          0.02323     0.52069   
  1604. BD*(   1) C  54 - C  56          0.01525     0.53872   
  1605. BD*(   1) C  54 - H  64          0.01540     0.41010   
  1606. BD*(   1) C  55 - C  56          0.01441     0.54004   
  1607. BD*(   2) C  55 - C  56          0.31920     0.02743  1602(v),1612(v),1254(g)
                                                    1280(g)
  1608. BD*(   1) C  55 - C  57          0.01454     0.53639   
  1609. BD*(   1) C  55 - H  72          0.01289     0.40526   
  1610. BD*(   1) C  56 - H  73          0.01334     0.40249   
  1611. BD*(   1) C  57 - C  58          0.01534     0.55077   
  1612. BD*(   2) C  57 - C  58          0.29029     0.03629  1607(v),1602(v),1306(g)
  1613. BD*(   1) C  57 - H  71          0.01333     0.40563   
  1614. BD*(   1) C  58 - H  65          0.01422     0.42106   
  1615. BD*(   1)Pd  75 -Cl  76          0.17332     0.18713  1616(g),1574(g),1573(v)
                                                    860(v),1571(v),1450(g)
                                                    1448(g),1443(g),1445(g)
                                                    1446(g),1449(g),1454(g)
                                                    1451(g),180(v),1447(g)
                                                    1441(g),1442(g),1452(g)
                                                    1455(g),1045(r),1453(g)
                                                    1444(g),869(v),888(r)
                                                    1460(g),865(v),1463(g)
                                                    625(r),1491(v),1464(g)
                                                    209(r),188(v),186(v),1436(g)
                                                    1488(v),1458(g),1019(r)
  1616. BD*(   1)Pd  75 -Cl  77          0.17554     0.19665  1615(g),1518(g),1516(v)
                                                    1517(v),180(v),1450(g)
                                                    1446(g),1445(g),1449(g)
                                                    1452(g),1448(g),1440(g)
                                                    860(v),1447(g),1455(g)
                                                    1453(g),1441(g),173(g)
                                                    1489(g),1443(g),1442(g)
                                                    188(v),1573(v),1515(v)
                                                    1451(g),869(v),469(r)
                                                    1491(g),190(v),1045(r)
                                                    1570(r),186(v),189(v),625(r)
                                                    1454(g),865(v),1386(r)
                                                    1463(v),1202(r),1495(g)
                                                    339(r),208(r),889(r),888(r)
                                                    1492(g),1458(g),1487(g)
       -------------------------------
              Total Lewis  374.68852  ( 97.5751%)
        Valence non-Lewis    8.64534  (  2.2514%)
        Rydberg non-Lewis    0.66614  (  0.1735%)
       -------------------------------
            Total unit  1  384.00000  (100.0000%)
           Charge unit  1    0.00000
 1\1\GINC-NC282\SP\RPBE1PBE\Gen\C39H32Cl2O1P2Pd1\WALROTHR\12-Feb-2022\0
 \\# PBE1PBE gen pseudo=read int=(grid=ultrafine) empiricaldispersion=G
 D3BJ pop=nbo guess=read geom=check\\XantPhos_1 title\\0,1\P,0,-1.52635
 61442,1.8432700648,-3.4091969206\C,0,-1.9126776092,2.8116763843,-1.883
 1763317\C,0,-3.1369393758,3.4140648787,-1.5482613039\C,0,-3.4004852917
 ,3.7537222203,-0.2121505232\C,0,-2.485895332,3.4480000649,0.810902864\
 C,0,-1.2363397861,2.8829607733,0.5054095086\C,0,-0.9730234844,2.659221
 9757,-0.8519541334\O,0,0.2533095906,2.1445531924,-1.2232051679\C,0,-0.
 1417941282,2.455158404,1.500201242\C,0,-0.7121226574,2.2360346741,2.90
 96381183\C,0,0.9407515192,3.5713182068,1.5485182864\C,0,-2.1708245781,
 0.175847853,-2.9049982602\C,0,-2.3261021743,-0.2232501038,-1.564775334
 \C,0,-2.8290759736,-1.4963855394,-1.2575737155\C,0,-3.1890736876,-2.38
 02184335,-2.2816001963\C,0,-3.0283357652,-1.9927401348,-3.6206153207\C
 ,0,-2.5164696169,-0.7296607288,-3.9312995681\C,0,-2.7770888507,2.27272
 8477,-4.6885333437\C,0,-4.1442330218,2.0340194898,-4.4257163454\C,0,-4
 .7152841342,2.8033932651,-6.6564659115\C,0,-5.1079579452,2.3128053501,
 -5.4022408092\C,0,-3.3568914739,3.011384508,-6.9304946969\C,0,-2.38696
 11724,2.7514528123,-5.9522686365\H,0,-3.8895237666,3.589785299,-2.3218
 813234\H,0,-2.757279964,3.6519335397,1.8509278582\H,0,-4.3537748936,4.
 2260823655,0.0439593807\H,0,-1.4833243126,1.4473641647,2.9201566688\H,
 0,-1.1590324156,3.1673976483,3.2941328927\H,0,1.3631855584,3.761050687
 4,0.5487709788\H,0,0.4961357558,4.5107828637,1.9189078264\H,0,-4.45279
 57328,1.6055230138,-3.4668294864\H,0,-5.4691021795,3.0139518876,-7.422
 2481734\H,0,-3.043256361,3.3835747496,-7.9110043647\H,0,-1.3292210266,
 2.9407946875,-6.1518583029\H,0,-2.0836873325,0.4622805794,-0.748780894
 5\H,0,-2.95102109,-1.7870766275,-0.2088133613\H,0,-3.5904303656,-3.369
 8661897,-2.0400910447\H,0,-3.2927256448,-2.6811769423,-4.4290662821\H,
 0,-2.3989860183,-0.4360177017,-4.9787586828\P,0,1.5111210755,0.0585384
 326,-2.9691879678\C,0,1.3445180221,0.046815643,-1.1180736929\C,0,1.879
 6642079,-0.9817855915,-0.3142959758\C,0,1.6940424455,-0.960424234,1.07
 39900148\C,0,1.0087412542,0.0986618633,1.69663541\C,0,0.5188345469,1.1
 75270108,0.9432285996\C,0,0.7123488774,1.106817361,-0.4487227183\C,0,0
 .6999537147,-1.4610775782,-3.6049273085\C,0,0.3165859477,-2.5576811998
 ,-2.8156418262\C,0,-0.1762851062,-3.7189901238,-3.4267443817\C,0,-0.28
 25444896,-3.7955327735,-4.8223020607\C,0,0.0834534517,-2.6953424086,-5
 .6127473543\C,0,0.5646623788,-1.5278608234,-5.0083208449\C,0,3.2997184
 423,-0.367395218,-3.09098777\C,0,3.7442740528,-1.5817287352,-3.6416818
 702\C,0,6.0394419604,-0.9911755452,-3.1008114903\C,0,5.1138059009,-1.8
 888541058,-3.6456453471\C,0,5.5963879514,0.223354899,-2.5533805335\C,0
 ,4.2351289618,0.5399063101,-2.5525298576\H,0,2.4462359108,-1.793289678
 1,-0.7820104487\H,0,0.8833700598,0.0880968057,2.7834855034\H,0,2.09969
 60053,-1.7725557809,1.6849520193\H,0,0.088429151,1.9543299231,3.613232
 1508\H,0,1.7610894526,3.2755183061,2.2247476923\H,0,3.0284267324,-2.29
 05997647,-4.066351997\H,0,3.8962274718,1.4994728784,-2.1521960085\H,0,
 0.3833636225,-2.5018662901,-1.7258572702\H,0,-0.483966607,-4.566274642
 ,-2.8051287864\H,0,-0.660669266,-4.7084105514,-5.2940250591\H,0,-0.008
 8487338,-2.7436220884,-6.7026353642\H,0,0.8454814765,-0.6593352242,-5.
 6164341273\H,0,6.3166342971,0.9360097669,-2.1391555735\H,0,7.107358130
 3,-1.2327440714,-3.1065405172\H,0,5.4522474649,-2.8361001297,-4.078223
 4276\H,0,-6.1662690403,2.1335133689,-5.185990303\Pd,0,0.7284095177,2.0
 148330249,-3.9629103067\Cl,0,2.8974488979,2.4228330774,-4.8057533465\C
 l,0,0.0763927428,4.2611331105,-4.4645250445\\Version=ES64L-G09RevE.01\
 State=1-A\HF=-3310.0634734\RMSD=8.871e-09\Dipole=-2.3025583,-3.3551165
 ,2.7089468\Quadrupole=0.7231505,-10.2763315,9.553181,-11.1823247,12.71
 44982,15.0059694\PG=C01 [X(C39H32Cl2O1P2Pd1)]\\@


 SILVERMAN'S PARADOX - IF MURPHY'S LAW CAN GO WRONG, IT WILL.
 Job cpu time:       0 days  5 hours 30 minutes 55.8 seconds.
 File lengths (MBytes):  RWF=   1339 Int=      0 D2E=      0 Chk=    192 Scr=      1
 Normal termination of Gaussian 09 at Sat Feb 12 17:10:19 2022.
