 Entering Gaussian System, Link 0=g09
 Input=XantPhos_5.com
 Output=XantPhos_5.log
 Initial command:
 /gstore/apps/gaussian/g09.e01-foss-2017a/g09/l1.exe "/local/21251497/Gau-1183.inp" -scrdir="/local/21251497/"
 Entering Link 1 = /gstore/apps/gaussian/g09.e01-foss-2017a/g09/l1.exe PID=      1184.
  
 Copyright (c) 1988,1990,1992,1993,1995,1998,2003,2009,2015,
            Gaussian, Inc.  All Rights Reserved.
  
 This is part of the Gaussian(R) 09 program.  It is based on
 the Gaussian(R) 03 system (copyright 2003, Gaussian, Inc.),
 the Gaussian(R) 98 system (copyright 1998, Gaussian, Inc.),
 the Gaussian(R) 94 system (copyright 1995, Gaussian, Inc.),
 the Gaussian 92(TM) system (copyright 1992, Gaussian, Inc.),
 the Gaussian 90(TM) system (copyright 1990, Gaussian, Inc.),
 the Gaussian 88(TM) system (copyright 1988, Gaussian, Inc.),
 the Gaussian 86(TM) system (copyright 1986, Carnegie Mellon
 University), and the Gaussian 82(TM) system (copyright 1983,
 Carnegie Mellon University). Gaussian is a federally registered
 trademark of Gaussian, Inc.
  
 This software contains proprietary and confidential information,
 including trade secrets, belonging to Gaussian, Inc.
  
 This software is provided under written license and may be
 used, copied, transmitted, or stored only in accord with that
 written license.
  
 The following legend is applicable only to US Government
 contracts under FAR:
  
                    RESTRICTED RIGHTS LEGEND
  
 Use, reproduction and disclosure by the US Government is
 subject to restrictions as set forth in subparagraphs (a)
 and (c) of the Commercial Computer Software - Restricted
 Rights clause in FAR 52.227-19.
  
 Gaussian, Inc.
 340 Quinnipiac St., Bldg. 40, Wallingford CT 06492
  
  
 ---------------------------------------------------------------
 Warning -- This program may not be used in any manner that
 competes with the business of Gaussian, Inc. or will provide
 assistance to any competitor of Gaussian, Inc.  The licensee
 of this program is prohibited from giving any competitor of
 Gaussian, Inc. access to this program.  By using this program,
 the user acknowledges that Gaussian, Inc. is engaged in the
 business of creating and licensing software in the field of
 computational chemistry and represents and warrants to the
 licensee that it is not a competitor of Gaussian, Inc. and that
 it will not use this program in any manner prohibited above.
 ---------------------------------------------------------------
  

 Cite this work as:
 Gaussian 09, Revision E.01,
 M. J. Frisch, G. W. Trucks, H. B. Schlegel, G. E. Scuseria, 
 M. A. Robb, J. R. Cheeseman, G. Scalmani, V. Barone, B. Mennucci, 
 G. A. Petersson, H. Nakatsuji, M. Caricato, X. Li, H. P. Hratchian, 
 A. F. Izmaylov, J. Bloino, G. Zheng, J. L. Sonnenberg, M. Hada, 
 M. Ehara, K. Toyota, R. Fukuda, J. Hasegawa, M. Ishida, T. Nakajima, 
 Y. Honda, O. Kitao, H. Nakai, T. Vreven, J. A. Montgomery, Jr., 
 J. E. Peralta, F. Ogliaro, M. Bearpark, J. J. Heyd, E. Brothers, 
 K. N. Kudin, V. N. Staroverov, T. Keith, R. Kobayashi, J. Normand, 
 K. Raghavachari, A. Rendell, J. C. Burant, S. S. Iyengar, J. Tomasi, 
 M. Cossi, N. Rega, J. M. Millam, M. Klene, J. E. Knox, J. B. Cross, 
 V. Bakken, C. Adamo, J. Jaramillo, R. Gomperts, R. E. Stratmann, 
 O. Yazyev, A. J. Austin, R. Cammi, C. Pomelli, J. W. Ochterski, 
 R. L. Martin, K. Morokuma, V. G. Zakrzewski, G. A. Voth, 
 P. Salvador, J. J. Dannenberg, S. Dapprich, A. D. Daniels, 
 O. Farkas, J. B. Foresman, J. V. Ortiz, J. Cioslowski, 
 and D. J. Fox, Gaussian, Inc., Wallingford CT, 2013.
 
 ******************************************
 Gaussian 09:  ES64L-G09RevE.01 30-Nov-2015
                15-Nov-2021 
 ******************************************
 %nprocs=14
 Will use up to   14 processors via shared memory.
 %mem=128GB
 %chk=XantPhos_5.chk
 ----------------------------------------------------------------------
 # PBEPBE gen 6D pseudo=read scf=maxcycles=500 denfit int=(grid=ultrafi
 ne) empiricaldispersion=GD3BJ opt freq=noraman
 ----------------------------------------------------------------------
 1/14=-1,18=20,19=15,26=4,38=1/1,3;
 2/9=110,12=2,17=6,18=5,40=1/2;
 3/5=7,8=2,11=2,16=1,17=8,25=1,30=1,71=1,74=1009,75=-5,82=47,124=41/1,2,3;
 4//1;
 5/5=2,7=500,38=5/2;
 6/7=2,8=2,9=2,10=2,28=1/1;
 7//1,2,3,16;
 1/14=-1,18=20,19=15,26=4/3(2);
 2/9=110/2;
 99//99;
 2/9=110/2;
 3/5=7,6=1,8=2,11=2,16=1,17=8,25=1,30=1,71=1,74=1009,75=-5,82=7,124=41/1,2,3;
 4/5=5,16=3,69=1/1;
 5/5=2,7=500,38=5/2;
 7//1,2,3,16;
 1/14=-1,18=20,19=15,26=4/3(-5);
 2/9=110/2;
 6/7=2,8=2,9=2,10=2,19=2,28=1/1;
 99/9=1/99;
 --------
 XantPhos
 --------
 Symbolic Z-matrix:
 Charge =  0 Multiplicity = 1
 P                    -1.5218    1.4164   -3.6133 
 C                    -2.1454    1.6561   -1.8514 
 C                    -3.5029    1.5745   -1.4799 
 C                    -3.8928    1.8339   -0.15 
 C                    -2.9327    2.1783    0.825 
 C                    -1.5641    2.2644    0.4766 
 C                    -1.2084    2.0147   -0.8688 
 O                     0.0915    2.1198   -1.2455 
 C                    -0.4353    2.6166    1.4774 
 C                    -0.8123    2.1749    2.9126 
 C                    -0.219     4.1391    1.4708 
 C                    -2.0119   -0.2674   -4.2681 
 C                    -2.9159   -1.1104   -3.5871 
 C                    -3.2985   -2.348    -4.1403 
 C                    -2.7728   -2.7596   -5.3791 
 C                    -1.8618   -1.9323   -6.0614 
 C                    -1.485    -0.694    -5.5064 
 C                    -2.779     2.5476   -4.4424 
 C                    -3.5615    2.1282   -5.5425 
 C                    -4.6647    4.3019   -5.6348 
 C                    -4.4978    2.9978   -6.1352 
 C                    -3.8935    4.7331   -4.5403 
 C                    -2.9595    3.8598   -3.9507 
 H                    -4.2495    1.3353   -2.224 
 H                    -3.2712    2.3751    1.8297 
 H                    -4.9372    1.7767    0.1214 
 H                    -0.9783    1.0982    2.9628 
 H                    -1.7126    2.6704    3.2725 
 H                     0.0517    4.4945    0.4758 
 H                    -1.1219    4.6702    1.7733 
 H                    -3.4572    1.1328   -5.9459 
 H                    -5.3808    4.9704   -6.0904 
 H                    -4.0151    5.7343   -4.1533 
 H                    -2.3711    4.2036   -3.1122 
 H                    -3.3202   -0.8188   -2.6309 
 H                    -3.9896   -2.9847   -3.6077 
 H                    -3.0637   -3.7104   -5.8016 
 H                    -1.4555   -2.2454   -7.0122 
 H                    -0.7983   -0.0586   -6.0463 
 P                     1.7469    0.2394   -2.6246 
 C                     2.0108    0.7936   -0.851 
 C                     3.0387    0.3908    0.0259 
 C                     2.9935    0.7716    1.3837 
 C                     1.8998    1.509     1.886 
 C                     0.8649    1.9232    1.015 
 C                     1.0026    1.6342   -0.3581 
 C                     0.6773   -1.2925   -2.3969 
 C                    -0.137    -1.4735   -1.2554 
 C                    -0.8869   -2.6525   -1.0809 
 C                    -0.8321   -3.6717   -2.0485 
 C                    -0.0339   -3.5026   -3.1942 
 C                     0.7095   -2.3193   -3.3666 
 C                     3.3078   -0.6109   -3.2516 
 C                     3.8862   -1.6689   -2.5149 
 C                     5.6176   -1.9611   -4.2043 
 C                     5.0362   -2.3355   -2.9797 
 C                     5.0351   -0.9319   -4.9658 
 C                     3.8835   -0.2712   -4.4954 
 H                     3.8581   -0.2164   -0.323 
 H                     1.8716    1.7358    2.9399 
 H                     3.7822    0.4587    2.0529 
 H                    -0.0405    2.4282    3.6375 
 H                     0.5823    4.4297    2.1506 
 H                     3.4301   -1.9889   -1.5892 
 H                     3.4415    0.4944   -5.1123 
 H                    -0.1924   -0.7153   -0.4904 
 H                    -1.5023   -2.774    -0.2015 
 H                    -1.4071   -4.5766   -1.9175 
 H                     0.0043   -4.2773   -3.9459 
 H                     1.3209   -2.2093   -4.2504 
 H                     5.468    -0.6513   -5.9152 
 H                     6.4996   -2.4706   -4.5649 
 H                     5.466    -3.1396   -2.3999 
 H                    -5.0878    2.6624   -6.9757 
 Pd                    0.7994    2.042    -3.9373 
 Cl                    2.958     2.8965   -4.1982 
 Cl                    0.0992    3.8091   -5.2915 
 

 GradGradGradGradGradGradGradGradGradGradGradGradGradGradGradGradGradGrad
 Berny optimization.
 Initialization pass.
                           ----------------------------
                           !    Initial Parameters    !
                           ! (Angstroms and Degrees)  !
 --------------------------                            --------------------------
 ! Name  Definition              Value          Derivative Info.                !
 --------------------------------------------------------------------------------
 ! R1    R(1,2)                  1.8843         estimate D2E/DX2                !
 ! R2    R(1,12)                 1.8719         estimate D2E/DX2                !
 ! R3    R(1,18)                 1.8835         estimate D2E/DX2                !
 ! R4    R(1,75)                 2.4258         estimate D2E/DX2                !
 ! R5    R(2,3)                  1.4098         estimate D2E/DX2                !
 ! R6    R(2,7)                  1.4043         estimate D2E/DX2                !
 ! R7    R(3,4)                  1.4099         estimate D2E/DX2                !
 ! R8    R(3,24)                 1.0809         estimate D2E/DX2                !
 ! R9    R(4,5)                  1.411          estimate D2E/DX2                !
 ! R10   R(4,26)                 1.0806         estimate D2E/DX2                !
 ! R11   R(5,6)                  1.4149         estimate D2E/DX2                !
 ! R12   R(5,25)                 1.0783         estimate D2E/DX2                !
 ! R13   R(6,7)                  1.4139         estimate D2E/DX2                !
 ! R14   R(6,9)                  1.5491         estimate D2E/DX2                !
 ! R15   R(7,8)                  1.3575         estimate D2E/DX2                !
 ! R16   R(8,46)                 1.3614         estimate D2E/DX2                !
 ! R17   R(9,10)                 1.5482         estimate D2E/DX2                !
 ! R18   R(9,11)                 1.5378         estimate D2E/DX2                !
 ! R19   R(9,45)                 1.5444         estimate D2E/DX2                !
 ! R20   R(10,27)                1.0906         estimate D2E/DX2                !
 ! R21   R(10,28)                1.0888         estimate D2E/DX2                !
 ! R22   R(10,62)                1.0887         estimate D2E/DX2                !
 ! R23   R(11,29)                1.0907         estimate D2E/DX2                !
 ! R24   R(11,30)                1.0903         estimate D2E/DX2                !
 ! R25   R(11,63)                1.0903         estimate D2E/DX2                !
 ! R26   R(12,13)                1.4112         estimate D2E/DX2                !
 ! R27   R(12,17)                1.4117         estimate D2E/DX2                !
 ! R28   R(13,14)                1.4086         estimate D2E/DX2                !
 ! R29   R(13,35)                1.0783         estimate D2E/DX2                !
 ! R30   R(14,15)                1.4073         estimate D2E/DX2                !
 ! R31   R(14,36)                1.0801         estimate D2E/DX2                !
 ! R32   R(15,16)                1.4071         estimate D2E/DX2                !
 ! R33   R(15,37)                1.0803         estimate D2E/DX2                !
 ! R34   R(16,17)                1.4083         estimate D2E/DX2                !
 ! R35   R(16,38)                1.0803         estimate D2E/DX2                !
 ! R36   R(17,39)                1.0802         estimate D2E/DX2                !
 ! R37   R(18,19)                1.4137         estimate D2E/DX2                !
 ! R38   R(18,23)                1.4129         estimate D2E/DX2                !
 ! R39   R(19,21)                1.4086         estimate D2E/DX2                !
 ! R40   R(19,31)                1.0791         estimate D2E/DX2                !
 ! R41   R(20,21)                1.4067         estimate D2E/DX2                !
 ! R42   R(20,22)                1.4066         estimate D2E/DX2                !
 ! R43   R(20,32)                1.0804         estimate D2E/DX2                !
 ! R44   R(21,74)                1.0803         estimate D2E/DX2                !
 ! R45   R(22,23)                1.4081         estimate D2E/DX2                !
 ! R46   R(22,33)                1.0803         estimate D2E/DX2                !
 ! R47   R(23,34)                1.0805         estimate D2E/DX2                !
 ! R48   R(40,41)                1.8768         estimate D2E/DX2                !
 ! R49   R(40,47)                1.8822         estimate D2E/DX2                !
 ! R50   R(40,53)                1.8848         estimate D2E/DX2                !
 ! R51   R(40,75)                2.4229         estimate D2E/DX2                !
 ! R52   R(41,42)                1.4099         estimate D2E/DX2                !
 ! R53   R(41,46)                1.4022         estimate D2E/DX2                !
 ! R54   R(42,43)                1.4109         estimate D2E/DX2                !
 ! R55   R(42,59)                1.0779         estimate D2E/DX2                !
 ! R56   R(43,44)                1.4115         estimate D2E/DX2                !
 ! R57   R(43,61)                1.0806         estimate D2E/DX2                !
 ! R58   R(44,45)                1.4146         estimate D2E/DX2                !
 ! R59   R(44,60)                1.0784         estimate D2E/DX2                !
 ! R60   R(45,46)                1.4099         estimate D2E/DX2                !
 ! R61   R(47,48)                1.4138         estimate D2E/DX2                !
 ! R62   R(47,52)                1.4127         estimate D2E/DX2                !
 ! R63   R(48,49)                1.4081         estimate D2E/DX2                !
 ! R64   R(48,66)                1.0785         estimate D2E/DX2                !
 ! R65   R(49,50)                1.4064         estimate D2E/DX2                !
 ! R66   R(49,67)                1.0802         estimate D2E/DX2                !
 ! R67   R(50,51)                1.4065         estimate D2E/DX2                !
 ! R68   R(50,68)                1.0801         estimate D2E/DX2                !
 ! R69   R(51,52)                1.408          estimate D2E/DX2                !
 ! R70   R(51,69)                1.0801         estimate D2E/DX2                !
 ! R71   R(52,70)                1.0803         estimate D2E/DX2                !
 ! R72   R(53,54)                1.413          estimate D2E/DX2                !
 ! R73   R(53,58)                1.412          estimate D2E/DX2                !
 ! R74   R(54,56)                1.4082         estimate D2E/DX2                !
 ! R75   R(54,64)                1.0804         estimate D2E/DX2                !
 ! R76   R(55,56)                1.4064         estimate D2E/DX2                !
 ! R77   R(55,57)                1.4066         estimate D2E/DX2                !
 ! R78   R(55,72)                1.0805         estimate D2E/DX2                !
 ! R79   R(56,73)                1.0805         estimate D2E/DX2                !
 ! R80   R(57,58)                1.4085         estimate D2E/DX2                !
 ! R81   R(57,71)                1.0805         estimate D2E/DX2                !
 ! R82   R(58,65)                1.078          estimate D2E/DX2                !
 ! R83   R(75,76)                2.3362         estimate D2E/DX2                !
 ! R84   R(75,77)                2.3338         estimate D2E/DX2                !
 ! A1    A(2,1,12)             110.7844         estimate D2E/DX2                !
 ! A2    A(2,1,18)              96.5631         estimate D2E/DX2                !
 ! A3    A(2,1,75)             114.127          estimate D2E/DX2                !
 ! A4    A(12,1,18)            102.2096         estimate D2E/DX2                !
 ! A5    A(12,1,75)            115.8354         estimate D2E/DX2                !
 ! A6    A(18,1,75)            115.1522         estimate D2E/DX2                !
 ! A7    A(1,2,3)              123.8973         estimate D2E/DX2                !
 ! A8    A(1,2,7)              117.7697         estimate D2E/DX2                !
 ! A9    A(3,2,7)              118.2219         estimate D2E/DX2                !
 ! A10   A(2,3,4)              120.2775         estimate D2E/DX2                !
 ! A11   A(2,3,24)             119.7697         estimate D2E/DX2                !
 ! A12   A(4,3,24)             119.9364         estimate D2E/DX2                !
 ! A13   A(3,4,5)              120.5637         estimate D2E/DX2                !
 ! A14   A(3,4,26)             119.6322         estimate D2E/DX2                !
 ! A15   A(5,4,26)             119.8018         estimate D2E/DX2                !
 ! A16   A(4,5,6)              120.1903         estimate D2E/DX2                !
 ! A17   A(4,5,25)             118.344          estimate D2E/DX2                !
 ! A18   A(6,5,25)             121.4652         estimate D2E/DX2                !
 ! A19   A(5,6,7)              117.835          estimate D2E/DX2                !
 ! A20   A(5,6,9)              124.0272         estimate D2E/DX2                !
 ! A21   A(7,6,9)              118.1377         estimate D2E/DX2                !
 ! A22   A(2,7,6)              122.8925         estimate D2E/DX2                !
 ! A23   A(2,7,8)              117.6807         estimate D2E/DX2                !
 ! A24   A(6,7,8)              119.4267         estimate D2E/DX2                !
 ! A25   A(7,8,46)             115.6176         estimate D2E/DX2                !
 ! A26   A(6,9,10)             110.8901         estimate D2E/DX2                !
 ! A27   A(6,9,11)             108.9539         estimate D2E/DX2                !
 ! A28   A(6,9,45)             108.5388         estimate D2E/DX2                !
 ! A29   A(10,9,11)            108.7042         estimate D2E/DX2                !
 ! A30   A(10,9,45)            110.7603         estimate D2E/DX2                !
 ! A31   A(11,9,45)            108.9542         estimate D2E/DX2                !
 ! A32   A(9,10,27)            111.186          estimate D2E/DX2                !
 ! A33   A(9,10,28)            112.2044         estimate D2E/DX2                !
 ! A34   A(9,10,62)            112.2234         estimate D2E/DX2                !
 ! A35   A(27,10,28)           107.9513         estimate D2E/DX2                !
 ! A36   A(27,10,62)           107.8757         estimate D2E/DX2                !
 ! A37   A(28,10,62)           105.0817         estimate D2E/DX2                !
 ! A38   A(9,11,29)            111.188          estimate D2E/DX2                !
 ! A39   A(9,11,30)            111.3823         estimate D2E/DX2                !
 ! A40   A(9,11,63)            111.3824         estimate D2E/DX2                !
 ! A41   A(29,11,30)           107.4519         estimate D2E/DX2                !
 ! A42   A(29,11,63)           107.4308         estimate D2E/DX2                !
 ! A43   A(30,11,63)           107.8065         estimate D2E/DX2                !
 ! A44   A(1,12,13)            122.4268         estimate D2E/DX2                !
 ! A45   A(1,12,17)            118.7454         estimate D2E/DX2                !
 ! A46   A(13,12,17)           118.8057         estimate D2E/DX2                !
 ! A47   A(12,13,14)           120.6182         estimate D2E/DX2                !
 ! A48   A(12,13,35)           120.4331         estimate D2E/DX2                !
 ! A49   A(14,13,35)           118.9477         estimate D2E/DX2                !
 ! A50   A(13,14,15)           120.0818         estimate D2E/DX2                !
 ! A51   A(13,14,36)           119.8716         estimate D2E/DX2                !
 ! A52   A(15,14,36)           120.0443         estimate D2E/DX2                !
 ! A53   A(14,15,16)           119.785          estimate D2E/DX2                !
 ! A54   A(14,15,37)           120.0717         estimate D2E/DX2                !
 ! A55   A(16,15,37)           120.1423         estimate D2E/DX2                !
 ! A56   A(15,16,17)           119.9405         estimate D2E/DX2                !
 ! A57   A(15,16,38)           119.9904         estimate D2E/DX2                !
 ! A58   A(17,16,38)           120.0685         estimate D2E/DX2                !
 ! A59   A(12,17,16)           120.7645         estimate D2E/DX2                !
 ! A60   A(12,17,39)           119.8637         estimate D2E/DX2                !
 ! A61   A(16,17,39)           119.3626         estimate D2E/DX2                !
 ! A62   A(1,18,19)            122.2656         estimate D2E/DX2                !
 ! A63   A(1,18,23)            119.332          estimate D2E/DX2                !
 ! A64   A(19,18,23)           118.4013         estimate D2E/DX2                !
 ! A65   A(18,19,21)           120.8119         estimate D2E/DX2                !
 ! A66   A(18,19,31)           120.736          estimate D2E/DX2                !
 ! A67   A(21,19,31)           118.4519         estimate D2E/DX2                !
 ! A68   A(21,20,22)           119.7301         estimate D2E/DX2                !
 ! A69   A(21,20,32)           120.1482         estimate D2E/DX2                !
 ! A70   A(22,20,32)           120.1216         estimate D2E/DX2                !
 ! A71   A(19,21,20)           120.0987         estimate D2E/DX2                !
 ! A72   A(19,21,74)           119.916          estimate D2E/DX2                !
 ! A73   A(20,21,74)           119.9853         estimate D2E/DX2                !
 ! A74   A(20,22,23)           119.9579         estimate D2E/DX2                !
 ! A75   A(20,22,33)           120.0762         estimate D2E/DX2                !
 ! A76   A(23,22,33)           119.9658         estimate D2E/DX2                !
 ! A77   A(18,23,22)           121.0            estimate D2E/DX2                !
 ! A78   A(18,23,34)           119.7363         estimate D2E/DX2                !
 ! A79   A(22,23,34)           119.2632         estimate D2E/DX2                !
 ! A80   A(41,40,47)           101.8831         estimate D2E/DX2                !
 ! A81   A(41,40,53)           109.3374         estimate D2E/DX2                !
 ! A82   A(41,40,75)           110.322          estimate D2E/DX2                !
 ! A83   A(47,40,53)            98.2611         estimate D2E/DX2                !
 ! A84   A(47,40,75)           116.6696         estimate D2E/DX2                !
 ! A85   A(53,40,75)           118.6373         estimate D2E/DX2                !
 ! A86   A(40,41,42)           127.2945         estimate D2E/DX2                !
 ! A87   A(40,41,46)           114.0869         estimate D2E/DX2                !
 ! A88   A(42,41,46)           118.4807         estimate D2E/DX2                !
 ! A89   A(41,42,43)           119.8735         estimate D2E/DX2                !
 ! A90   A(41,42,59)           120.9204         estimate D2E/DX2                !
 ! A91   A(43,42,59)           119.2024         estimate D2E/DX2                !
 ! A92   A(42,43,44)           120.5507         estimate D2E/DX2                !
 ! A93   A(42,43,61)           119.6316         estimate D2E/DX2                !
 ! A94   A(44,43,61)           119.7639         estimate D2E/DX2                !
 ! A95   A(43,44,45)           120.0475         estimate D2E/DX2                !
 ! A96   A(43,44,60)           118.5499         estimate D2E/DX2                !
 ! A97   A(45,44,60)           121.3999         estimate D2E/DX2                !
 ! A98   A(9,45,44)            124.2639         estimate D2E/DX2                !
 ! A99   A(9,45,46)            117.7646         estimate D2E/DX2                !
 ! A100  A(44,45,46)           117.9148         estimate D2E/DX2                !
 ! A101  A(8,46,41)            117.7692         estimate D2E/DX2                !
 ! A102  A(8,46,45)            119.7577         estimate D2E/DX2                !
 ! A103  A(41,46,45)           122.3751         estimate D2E/DX2                !
 ! A104  A(40,47,48)           121.9499         estimate D2E/DX2                !
 ! A105  A(40,47,52)           119.7081         estimate D2E/DX2                !
 ! A106  A(48,47,52)           118.313          estimate D2E/DX2                !
 ! A107  A(47,48,49)           120.9287         estimate D2E/DX2                !
 ! A108  A(47,48,66)           120.8159         estimate D2E/DX2                !
 ! A109  A(49,48,66)           118.2527         estimate D2E/DX2                !
 ! A110  A(48,49,50)           120.0495         estimate D2E/DX2                !
 ! A111  A(48,49,67)           119.8984         estimate D2E/DX2                !
 ! A112  A(50,49,67)           120.052          estimate D2E/DX2                !
 ! A113  A(49,50,51)           119.6955         estimate D2E/DX2                !
 ! A114  A(49,50,68)           120.1947         estimate D2E/DX2                !
 ! A115  A(51,50,68)           120.1074         estimate D2E/DX2                !
 ! A116  A(50,51,52)           120.0257         estimate D2E/DX2                !
 ! A117  A(50,51,69)           120.0476         estimate D2E/DX2                !
 ! A118  A(52,51,69)           119.9254         estimate D2E/DX2                !
 ! A119  A(47,52,51)           120.9809         estimate D2E/DX2                !
 ! A120  A(47,52,70)           120.0308         estimate D2E/DX2                !
 ! A121  A(51,52,70)           118.9833         estimate D2E/DX2                !
 ! A122  A(40,53,54)           120.2209         estimate D2E/DX2                !
 ! A123  A(40,53,58)           121.4753         estimate D2E/DX2                !
 ! A124  A(54,53,58)           118.1957         estimate D2E/DX2                !
 ! A125  A(53,54,56)           121.1077         estimate D2E/DX2                !
 ! A126  A(53,54,64)           119.7132         estimate D2E/DX2                !
 ! A127  A(56,54,64)           119.1667         estimate D2E/DX2                !
 ! A128  A(56,55,57)           119.6704         estimate D2E/DX2                !
 ! A129  A(56,55,72)           120.1665         estimate D2E/DX2                !
 ! A130  A(57,55,72)           120.1579         estimate D2E/DX2                !
 ! A131  A(54,56,55)           119.9347         estimate D2E/DX2                !
 ! A132  A(54,56,73)           120.0017         estimate D2E/DX2                !
 ! A133  A(55,56,73)           120.0614         estimate D2E/DX2                !
 ! A134  A(55,57,58)           120.0663         estimate D2E/DX2                !
 ! A135  A(55,57,71)           119.9866         estimate D2E/DX2                !
 ! A136  A(58,57,71)           119.9463         estimate D2E/DX2                !
 ! A137  A(53,58,57)           120.9748         estimate D2E/DX2                !
 ! A138  A(53,58,65)           120.5154         estimate D2E/DX2                !
 ! A139  A(57,58,65)           118.5057         estimate D2E/DX2                !
 ! A140  A(1,75,40)             96.3135         estimate D2E/DX2                !
 ! A141  A(1,75,77)             89.1797         estimate D2E/DX2                !
 ! A142  A(40,75,76)            88.3552         estimate D2E/DX2                !
 ! A143  A(76,75,77)            86.3            estimate D2E/DX2                !
 ! A144  L(1,75,76,77,-1)      175.4798         estimate D2E/DX2                !
 ! A145  L(40,75,77,76,-1)     174.6552         estimate D2E/DX2                !
 ! A146  L(1,75,76,77,-2)      175.2075         estimate D2E/DX2                !
 ! A147  L(40,75,77,76,-2)     177.9754         estimate D2E/DX2                !
 ! D1    D(12,1,2,3)           -58.116          estimate D2E/DX2                !
 ! D2    D(12,1,2,7)           125.792          estimate D2E/DX2                !
 ! D3    D(18,1,2,3)            47.6298         estimate D2E/DX2                !
 ! D4    D(18,1,2,7)          -128.4622         estimate D2E/DX2                !
 ! D5    D(75,1,2,3)           168.9829         estimate D2E/DX2                !
 ! D6    D(75,1,2,7)            -7.1091         estimate D2E/DX2                !
 ! D7    D(2,1,12,13)            9.8613         estimate D2E/DX2                !
 ! D8    D(2,1,12,17)         -171.8692         estimate D2E/DX2                !
 ! D9    D(18,1,12,13)         -92.0977         estimate D2E/DX2                !
 ! D10   D(18,1,12,17)          86.1718         estimate D2E/DX2                !
 ! D11   D(75,1,12,13)         141.8926         estimate D2E/DX2                !
 ! D12   D(75,1,12,17)         -39.8378         estimate D2E/DX2                !
 ! D13   D(2,1,18,19)         -128.3467         estimate D2E/DX2                !
 ! D14   D(2,1,18,23)           51.2739         estimate D2E/DX2                !
 ! D15   D(12,1,18,19)         -15.3702         estimate D2E/DX2                !
 ! D16   D(12,1,18,23)         164.2505         estimate D2E/DX2                !
 ! D17   D(75,1,18,19)         111.084          estimate D2E/DX2                !
 ! D18   D(75,1,18,23)         -69.2954         estimate D2E/DX2                !
 ! D19   D(2,1,75,40)           68.8369         estimate D2E/DX2                !
 ! D20   D(2,1,75,77)         -112.7435         estimate D2E/DX2                !
 ! D21   D(12,1,75,40)         -61.6184         estimate D2E/DX2                !
 ! D22   D(12,1,75,77)         116.8012         estimate D2E/DX2                !
 ! D23   D(18,1,75,40)         179.2424         estimate D2E/DX2                !
 ! D24   D(18,1,75,77)          -2.338          estimate D2E/DX2                !
 ! D25   D(1,2,3,4)           -176.7823         estimate D2E/DX2                !
 ! D26   D(1,2,3,24)             1.7419         estimate D2E/DX2                !
 ! D27   D(7,2,3,4)             -0.7068         estimate D2E/DX2                !
 ! D28   D(7,2,3,24)           177.8174         estimate D2E/DX2                !
 ! D29   D(1,2,7,6)            177.8732         estimate D2E/DX2                !
 ! D30   D(1,2,7,8)             -2.2068         estimate D2E/DX2                !
 ! D31   D(3,2,7,6)              1.5544         estimate D2E/DX2                !
 ! D32   D(3,2,7,8)           -178.5257         estimate D2E/DX2                !
 ! D33   D(2,3,4,5)              0.0222         estimate D2E/DX2                !
 ! D34   D(2,3,4,26)           179.4741         estimate D2E/DX2                !
 ! D35   D(24,3,4,5)          -178.4996         estimate D2E/DX2                !
 ! D36   D(24,3,4,26)            0.9523         estimate D2E/DX2                !
 ! D37   D(3,4,5,6)             -0.1226         estimate D2E/DX2                !
 ! D38   D(3,4,5,25)           179.6338         estimate D2E/DX2                !
 ! D39   D(26,4,5,6)          -179.5736         estimate D2E/DX2                !
 ! D40   D(26,4,5,25)            0.1829         estimate D2E/DX2                !
 ! D41   D(4,5,6,7)              0.8942         estimate D2E/DX2                !
 ! D42   D(4,5,6,9)           -179.1876         estimate D2E/DX2                !
 ! D43   D(25,5,6,7)          -178.8545         estimate D2E/DX2                !
 ! D44   D(25,5,6,9)             1.0637         estimate D2E/DX2                !
 ! D45   D(5,6,7,2)             -1.6459         estimate D2E/DX2                !
 ! D46   D(5,6,7,8)            178.4355         estimate D2E/DX2                !
 ! D47   D(9,6,7,2)            178.4309         estimate D2E/DX2                !
 ! D48   D(9,6,7,8)             -1.4877         estimate D2E/DX2                !
 ! D49   D(5,6,9,10)            28.4631         estimate D2E/DX2                !
 ! D50   D(5,6,9,11)           -91.1406         estimate D2E/DX2                !
 ! D51   D(5,6,9,45)           150.3439         estimate D2E/DX2                !
 ! D52   D(7,6,9,10)          -151.6189         estimate D2E/DX2                !
 ! D53   D(7,6,9,11)            88.7774         estimate D2E/DX2                !
 ! D54   D(7,6,9,45)           -29.7381         estimate D2E/DX2                !
 ! D55   D(2,7,8,46)          -139.8896         estimate D2E/DX2                !
 ! D56   D(6,7,8,46)            40.0332         estimate D2E/DX2                !
 ! D57   D(7,8,46,41)          132.4243         estimate D2E/DX2                !
 ! D58   D(7,8,46,45)          -44.0621         estimate D2E/DX2                !
 ! D59   D(6,9,10,27)           60.0806         estimate D2E/DX2                !
 ! D60   D(6,9,10,28)          -60.9325         estimate D2E/DX2                !
 ! D61   D(6,9,10,62)         -178.9901         estimate D2E/DX2                !
 ! D62   D(11,9,10,27)         179.8336         estimate D2E/DX2                !
 ! D63   D(11,9,10,28)          58.8206         estimate D2E/DX2                !
 ! D64   D(11,9,10,62)         -59.2371         estimate D2E/DX2                !
 ! D65   D(45,9,10,27)         -60.4918         estimate D2E/DX2                !
 ! D66   D(45,9,10,28)         178.4952         estimate D2E/DX2                !
 ! D67   D(45,9,10,62)          60.4375         estimate D2E/DX2                !
 ! D68   D(6,9,11,29)          -59.1789         estimate D2E/DX2                !
 ! D69   D(6,9,11,30)           60.6359         estimate D2E/DX2                !
 ! D70   D(6,9,11,63)         -178.9672         estimate D2E/DX2                !
 ! D71   D(10,9,11,29)         179.8696         estimate D2E/DX2                !
 ! D72   D(10,9,11,30)         -60.3156         estimate D2E/DX2                !
 ! D73   D(10,9,11,63)          60.0813         estimate D2E/DX2                !
 ! D74   D(45,9,11,29)          59.0757         estimate D2E/DX2                !
 ! D75   D(45,9,11,30)         178.8906         estimate D2E/DX2                !
 ! D76   D(45,9,11,63)         -60.7125         estimate D2E/DX2                !
 ! D77   D(6,9,45,44)         -150.9895         estimate D2E/DX2                !
 ! D78   D(6,9,45,46)           26.2069         estimate D2E/DX2                !
 ! D79   D(10,9,45,44)         -29.0294         estimate D2E/DX2                !
 ! D80   D(10,9,45,46)         148.167          estimate D2E/DX2                !
 ! D81   D(11,9,45,44)          90.4951         estimate D2E/DX2                !
 ! D82   D(11,9,45,46)         -92.3084         estimate D2E/DX2                !
 ! D83   D(1,12,13,14)         177.5029         estimate D2E/DX2                !
 ! D84   D(1,12,13,35)          -2.8677         estimate D2E/DX2                !
 ! D85   D(17,12,13,14)         -0.7656         estimate D2E/DX2                !
 ! D86   D(17,12,13,35)        178.8638         estimate D2E/DX2                !
 ! D87   D(1,12,17,16)        -177.7501         estimate D2E/DX2                !
 ! D88   D(1,12,17,39)           1.1422         estimate D2E/DX2                !
 ! D89   D(13,12,17,16)          0.583          estimate D2E/DX2                !
 ! D90   D(13,12,17,39)        179.4753         estimate D2E/DX2                !
 ! D91   D(12,13,14,15)          0.4097         estimate D2E/DX2                !
 ! D92   D(12,13,14,36)        179.8701         estimate D2E/DX2                !
 ! D93   D(35,13,14,15)       -179.2251         estimate D2E/DX2                !
 ! D94   D(35,13,14,36)          0.2353         estimate D2E/DX2                !
 ! D95   D(13,14,15,16)          0.1422         estimate D2E/DX2                !
 ! D96   D(13,14,15,37)        179.7861         estimate D2E/DX2                !
 ! D97   D(36,14,15,16)       -179.3172         estimate D2E/DX2                !
 ! D98   D(36,14,15,37)          0.3267         estimate D2E/DX2                !
 ! D99   D(14,15,16,17)         -0.3238         estimate D2E/DX2                !
 ! D100  D(14,15,16,38)        179.9461         estimate D2E/DX2                !
 ! D101  D(37,15,16,17)       -179.9675         estimate D2E/DX2                !
 ! D102  D(37,15,16,38)          0.3023         estimate D2E/DX2                !
 ! D103  D(15,16,17,12)         -0.043          estimate D2E/DX2                !
 ! D104  D(15,16,17,39)       -178.9407         estimate D2E/DX2                !
 ! D105  D(38,16,17,12)        179.687          estimate D2E/DX2                !
 ! D106  D(38,16,17,39)          0.7892         estimate D2E/DX2                !
 ! D107  D(1,18,19,21)         179.6832         estimate D2E/DX2                !
 ! D108  D(1,18,19,31)          -0.1356         estimate D2E/DX2                !
 ! D109  D(23,18,19,21)          0.0592         estimate D2E/DX2                !
 ! D110  D(23,18,19,31)       -179.7596         estimate D2E/DX2                !
 ! D111  D(1,18,23,22)        -179.7375         estimate D2E/DX2                !
 ! D112  D(1,18,23,34)           0.5089         estimate D2E/DX2                !
 ! D113  D(19,18,23,22)         -0.1022         estimate D2E/DX2                !
 ! D114  D(19,18,23,34)       -179.8558         estimate D2E/DX2                !
 ! D115  D(18,19,21,20)          0.0075         estimate D2E/DX2                !
 ! D116  D(18,19,21,74)        179.9649         estimate D2E/DX2                !
 ! D117  D(31,19,21,20)        179.8303         estimate D2E/DX2                !
 ! D118  D(31,19,21,74)         -0.2123         estimate D2E/DX2                !
 ! D119  D(22,20,21,19)         -0.033          estimate D2E/DX2                !
 ! D120  D(22,20,21,74)       -179.9903         estimate D2E/DX2                !
 ! D121  D(32,20,21,19)        179.8425         estimate D2E/DX2                !
 ! D122  D(32,20,21,74)         -0.1148         estimate D2E/DX2                !
 ! D123  D(21,20,22,23)         -0.0094         estimate D2E/DX2                !
 ! D124  D(21,20,22,33)        179.8263         estimate D2E/DX2                !
 ! D125  D(32,20,22,23)       -179.8849         estimate D2E/DX2                !
 ! D126  D(32,20,22,33)         -0.0492         estimate D2E/DX2                !
 ! D127  D(20,22,23,18)          0.0783         estimate D2E/DX2                !
 ! D128  D(20,22,23,34)        179.8331         estimate D2E/DX2                !
 ! D129  D(33,22,23,18)       -179.7575         estimate D2E/DX2                !
 ! D130  D(33,22,23,34)         -0.0027         estimate D2E/DX2                !
 ! D131  D(47,40,41,42)         88.6585         estimate D2E/DX2                !
 ! D132  D(47,40,41,46)        -86.9688         estimate D2E/DX2                !
 ! D133  D(53,40,41,42)        -14.6065         estimate D2E/DX2                !
 ! D134  D(53,40,41,46)        169.7663         estimate D2E/DX2                !
 ! D135  D(75,40,41,42)       -146.7968         estimate D2E/DX2                !
 ! D136  D(75,40,41,46)         37.5759         estimate D2E/DX2                !
 ! D137  D(41,40,47,48)         24.8966         estimate D2E/DX2                !
 ! D138  D(41,40,47,52)       -153.1101         estimate D2E/DX2                !
 ! D139  D(53,40,47,48)        136.7654         estimate D2E/DX2                !
 ! D140  D(53,40,47,52)        -41.2413         estimate D2E/DX2                !
 ! D141  D(75,40,47,48)        -95.2919         estimate D2E/DX2                !
 ! D142  D(75,40,47,52)         86.7014         estimate D2E/DX2                !
 ! D143  D(41,40,53,54)         52.5467         estimate D2E/DX2                !
 ! D144  D(41,40,53,58)       -131.3012         estimate D2E/DX2                !
 ! D145  D(47,40,53,54)        -53.2048         estimate D2E/DX2                !
 ! D146  D(47,40,53,58)        122.9473         estimate D2E/DX2                !
 ! D147  D(75,40,53,54)       -179.7923         estimate D2E/DX2                !
 ! D148  D(75,40,53,58)         -3.6402         estimate D2E/DX2                !
 ! D149  D(41,40,75,1)         -92.8468         estimate D2E/DX2                !
 ! D150  D(41,40,75,76)         82.4955         estimate D2E/DX2                !
 ! D151  D(47,40,75,1)          22.7315         estimate D2E/DX2                !
 ! D152  D(47,40,75,76)       -161.9261         estimate D2E/DX2                !
 ! D153  D(53,40,75,1)         139.9561         estimate D2E/DX2                !
 ! D154  D(53,40,75,76)        -44.7015         estimate D2E/DX2                !
 ! D155  D(40,41,42,43)       -171.8305         estimate D2E/DX2                !
 ! D156  D(40,41,42,59)          7.4674         estimate D2E/DX2                !
 ! D157  D(46,41,42,43)          3.6274         estimate D2E/DX2                !
 ! D158  D(46,41,42,59)       -177.0747         estimate D2E/DX2                !
 ! D159  D(40,41,46,8)         -10.2448         estimate D2E/DX2                !
 ! D160  D(40,41,46,45)        166.1434         estimate D2E/DX2                !
 ! D161  D(42,41,46,8)         173.7122         estimate D2E/DX2                !
 ! D162  D(42,41,46,45)         -9.8996         estimate D2E/DX2                !
 ! D163  D(41,42,43,44)          2.527          estimate D2E/DX2                !
 ! D164  D(41,42,43,61)        179.8534         estimate D2E/DX2                !
 ! D165  D(59,42,43,44)       -176.7829         estimate D2E/DX2                !
 ! D166  D(59,42,43,61)          0.5434         estimate D2E/DX2                !
 ! D167  D(42,43,44,45)         -2.7616         estimate D2E/DX2                !
 ! D168  D(42,43,44,60)        176.648          estimate D2E/DX2                !
 ! D169  D(61,43,44,45)        179.9155         estimate D2E/DX2                !
 ! D170  D(61,43,44,60)         -0.6749         estimate D2E/DX2                !
 ! D171  D(43,44,45,9)         174.0676         estimate D2E/DX2                !
 ! D172  D(43,44,45,46)         -3.1249         estimate D2E/DX2                !
 ! D173  D(60,44,45,9)          -5.3248         estimate D2E/DX2                !
 ! D174  D(60,44,45,46)        177.4826         estimate D2E/DX2                !
 ! D175  D(9,45,46,8)            8.5621         estimate D2E/DX2                !
 ! D176  D(9,45,46,41)        -167.7565         estimate D2E/DX2                !
 ! D177  D(44,45,46,8)        -174.0599         estimate D2E/DX2                !
 ! D178  D(44,45,46,41)          9.6215         estimate D2E/DX2                !
 ! D179  D(40,47,48,49)       -177.3864         estimate D2E/DX2                !
 ! D180  D(40,47,48,66)          2.0155         estimate D2E/DX2                !
 ! D181  D(52,47,48,49)          0.647          estimate D2E/DX2                !
 ! D182  D(52,47,48,66)       -179.9511         estimate D2E/DX2                !
 ! D183  D(40,47,52,51)        177.1553         estimate D2E/DX2                !
 ! D184  D(40,47,52,70)         -2.0259         estimate D2E/DX2                !
 ! D185  D(48,47,52,51)         -0.9235         estimate D2E/DX2                !
 ! D186  D(48,47,52,70)        179.8953         estimate D2E/DX2                !
 ! D187  D(47,48,49,50)          0.0558         estimate D2E/DX2                !
 ! D188  D(47,48,49,67)        179.8972         estimate D2E/DX2                !
 ! D189  D(66,48,49,50)       -179.3611         estimate D2E/DX2                !
 ! D190  D(66,48,49,67)          0.4803         estimate D2E/DX2                !
 ! D191  D(48,49,50,51)         -0.4983         estimate D2E/DX2                !
 ! D192  D(48,49,50,68)       -179.9394         estimate D2E/DX2                !
 ! D193  D(67,49,50,51)        179.6605         estimate D2E/DX2                !
 ! D194  D(67,49,50,68)          0.2194         estimate D2E/DX2                !
 ! D195  D(49,50,51,52)          0.2253         estimate D2E/DX2                !
 ! D196  D(49,50,51,69)       -179.36           estimate D2E/DX2                !
 ! D197  D(68,50,51,52)        179.6669         estimate D2E/DX2                !
 ! D198  D(68,50,51,69)          0.0816         estimate D2E/DX2                !
 ! D199  D(50,51,52,47)          0.4976         estimate D2E/DX2                !
 ! D200  D(50,51,52,70)        179.6872         estimate D2E/DX2                !
 ! D201  D(69,51,52,47)       -179.9166         estimate D2E/DX2                !
 ! D202  D(69,51,52,70)         -0.727          estimate D2E/DX2                !
 ! D203  D(40,53,54,56)        178.6778         estimate D2E/DX2                !
 ! D204  D(40,53,54,64)         -0.0309         estimate D2E/DX2                !
 ! D205  D(58,53,54,56)          2.4012         estimate D2E/DX2                !
 ! D206  D(58,53,54,64)       -176.3076         estimate D2E/DX2                !
 ! D207  D(40,53,58,57)       -178.7312         estimate D2E/DX2                !
 ! D208  D(40,53,58,65)          0.5254         estimate D2E/DX2                !
 ! D209  D(54,53,58,57)         -2.5036         estimate D2E/DX2                !
 ! D210  D(54,53,58,65)        176.7529         estimate D2E/DX2                !
 ! D211  D(53,54,56,55)         -0.7876         estimate D2E/DX2                !
 ! D212  D(53,54,56,73)        179.7517         estimate D2E/DX2                !
 ! D213  D(64,54,56,55)        177.9281         estimate D2E/DX2                !
 ! D214  D(64,54,56,73)         -1.5326         estimate D2E/DX2                !
 ! D215  D(57,55,56,54)         -0.7809         estimate D2E/DX2                !
 ! D216  D(57,55,56,73)        178.6795         estimate D2E/DX2                !
 ! D217  D(72,55,56,54)       -179.9509         estimate D2E/DX2                !
 ! D218  D(72,55,56,73)         -0.4905         estimate D2E/DX2                !
 ! D219  D(56,55,57,58)          0.6776         estimate D2E/DX2                !
 ! D220  D(56,55,57,71)       -178.9822         estimate D2E/DX2                !
 ! D221  D(72,55,57,58)        179.8476         estimate D2E/DX2                !
 ! D222  D(72,55,57,71)          0.1879         estimate D2E/DX2                !
 ! D223  D(55,57,58,53)          0.998          estimate D2E/DX2                !
 ! D224  D(55,57,58,65)       -178.2731         estimate D2E/DX2                !
 ! D225  D(71,57,58,53)       -179.3421         estimate D2E/DX2                !
 ! D226  D(71,57,58,65)          1.3868         estimate D2E/DX2                !
 --------------------------------------------------------------------------------
 Trust Radius=3.00D-01 FncErr=1.00D-07 GrdErr=1.00D-06
 Number of steps in this run=    462 maximum allowed number of steps=    462.
 GradGradGradGradGradGradGradGradGradGradGradGradGradGradGradGradGradGrad

 Stoichiometry    C39H32Cl2OP2Pd
 Framework group  C1[X(C39H32Cl2OP2Pd)]
 Deg. of freedom   225
 Full point group                 C1      NOp   1
 Largest Abelian subgroup         C1      NOp   1
 Largest concise Abelian subgroup C1      NOp   1
                         Standard orientation:                         
 ---------------------------------------------------------------------
 Center     Atomic      Atomic             Coordinates (Angstroms)
 Number     Number       Type             X           Y           Z
 ---------------------------------------------------------------------
      1         15           0       -1.673224   -0.650102    0.029886
      2          6           0       -2.006137    1.072164    0.718069
      3          6           0       -3.091986    1.385783    1.560716
      4          6           0       -3.307435    2.715355    1.977564
      5          6           0       -2.442105    3.747967    1.558105
      6          6           0       -1.344331    3.457435    0.714099
      7          6           0       -1.166001    2.117178    0.300718
      8          8           0       -0.142059    1.807628   -0.534991
      9          6           0       -0.329926    4.516836    0.215615
     10          6           0       -0.202379    5.679356    1.230162
     11          6           0       -0.820241    5.085187   -1.126548
     12          6           0       -1.471295   -1.891746    1.416135
     13          6           0       -1.763951   -1.578953    2.760806
     14          6           0       -1.648225   -2.558163    3.766700
     15          6           0       -1.229333   -3.860842    3.438131
     16          6           0       -0.923779   -4.180765    2.102404
     17          6           0       -1.044573   -3.199623    1.099330
     18          6           0       -3.430199   -0.990692   -0.557147
     19          6           0       -4.129192   -2.167506   -0.203677
     20          6           0       -6.081884   -1.432419   -1.467474
     21          6           0       -5.445292   -2.387979   -0.654708
     22          6           0       -5.399074   -0.256335   -1.826933
     23          6           0       -4.083905   -0.040129   -1.372815
     24          1           0       -3.775083    0.606639    1.868328
     25          1           0       -2.643754    4.752745    1.893504
     26          1           0       -4.147947    2.945395    2.616564
     27          1           0        0.141227    5.319593    2.200659
     28          1           0       -1.146875    6.199878    1.380406
     29          1           0       -0.922410    4.297786   -1.874327
     30          1           0       -1.793327    5.565987   -1.022927
     31          1           0       -3.667433   -2.916730    0.420720
     32          1           0       -7.090401   -1.601875   -1.815959
     33          1           0       -5.881566    0.479895   -2.453131
     34          1           0       -3.568921    0.865951   -1.657956
     35          1           0       -2.074354   -0.583297    3.034899
     36          1           0       -1.873241   -2.305009    4.792346
     37          1           0       -1.137309   -4.610814    4.210285
     38          1           0       -0.601057   -5.179534    1.846586
     39          1           0       -0.824162   -3.460026    0.074444
     40         15           0        1.896212   -0.179552   -0.261603
     41          6           0        2.203094    1.671981   -0.252136
     42          6           0        3.443087    2.331766   -0.130156
     43          6           0        3.480714    3.732892    0.031414
     44          6           0        2.284780    4.476621    0.125498
     45          6           0        1.034643    3.826603   -0.000415
     46          6           0        1.034384    2.445924   -0.286094
     47          6           0        1.683050   -0.546459    1.572123
     48          6           0        1.257677    0.442572    2.488497
     49          6           0        1.157729    0.159478    3.864255
     50          6           0        1.484080   -1.121202    4.345270
     51          6           0        1.899883   -2.118609    3.444918
     52          6           0        1.992599   -1.831945    2.069494
     53          6           0        3.529275   -1.081495   -0.530211
     54          6           0        4.641867   -0.798662    0.293672
     55          6           0        5.982320   -2.473906   -0.861291
     56          6           0        5.862406   -1.480963    0.127410
     57          6           0        4.874463   -2.790572   -1.668023
     58          6           0        3.656169   -2.105311   -1.494350
     59          1           0        4.368472    1.779304   -0.147143
     60          1           0        2.350674    5.538197    0.303413
     61          1           0        4.433199    4.234323    0.126918
     62          1           0        0.493027    6.446033    0.892623
     63          1           0       -0.123811    5.824166   -1.523478
     64          1           0        4.553151   -0.062028    1.079068
     65          1           0        2.815266   -2.387577   -2.106951
     66          1           0        1.010292    1.437141    2.152646
     67          1           0        0.832483    0.928184    4.549914
     68          1           0        1.407325   -1.341196    5.399946
     69          1           0        2.141966   -3.107083    3.806841
     70          1           0        2.318665   -2.609065    1.393640
     71          1           0        4.956097   -3.564015   -2.418103
     72          1           0        6.916891   -3.000354   -0.991592
     73          1           0        6.703031   -1.247579    0.764871
     74          1           0       -5.965787   -3.292741   -0.376277
     75         46           0        0.023413   -0.714718   -1.702618
     76         17           0        1.486977   -0.634478   -3.521776
     77         17           0       -1.624360   -1.301782   -3.247603
 ---------------------------------------------------------------------
 Rotational constants (GHZ):      0.0740867      0.0619795      0.0540775
 General basis read from cards:  (6D, 7F)
 ======================================================================================================
                                       Pseudopotential Parameters
 ======================================================================================================
  Center     Atomic      Valence      Angular      Power
  Number     Number     Electrons     Momentum     of R      Exponent        Coefficient   SO-Coeffient
 ======================================================================================================
    1         15
                                   No pseudopotential on this center.
    2          6
                                   No pseudopotential on this center.
    3          6
                                   No pseudopotential on this center.
    4          6
                                   No pseudopotential on this center.
    5          6
                                   No pseudopotential on this center.
    6          6
                                   No pseudopotential on this center.
    7          6
                                   No pseudopotential on this center.
    8          8
                                   No pseudopotential on this center.
    9          6
                                   No pseudopotential on this center.
   10          6
                                   No pseudopotential on this center.
   11          6
                                   No pseudopotential on this center.
   12          6
                                   No pseudopotential on this center.
   13          6
                                   No pseudopotential on this center.
   14          6
                                   No pseudopotential on this center.
   15          6
                                   No pseudopotential on this center.
   16          6
                                   No pseudopotential on this center.
   17          6
                                   No pseudopotential on this center.
   18          6
                                   No pseudopotential on this center.
   19          6
                                   No pseudopotential on this center.
   20          6
                                   No pseudopotential on this center.
   21          6
                                   No pseudopotential on this center.
   22          6
                                   No pseudopotential on this center.
   23          6
                                   No pseudopotential on this center.
   24          1
                                   No pseudopotential on this center.
   25          1
                                   No pseudopotential on this center.
   26          1
                                   No pseudopotential on this center.
   27          1
                                   No pseudopotential on this center.
   28          1
                                   No pseudopotential on this center.
   29          1
                                   No pseudopotential on this center.
   30          1
                                   No pseudopotential on this center.
   31          1
                                   No pseudopotential on this center.
   32          1
                                   No pseudopotential on this center.
   33          1
                                   No pseudopotential on this center.
   34          1
                                   No pseudopotential on this center.
   35          1
                                   No pseudopotential on this center.
   36          1
                                   No pseudopotential on this center.
   37          1
                                   No pseudopotential on this center.
   38          1
                                   No pseudopotential on this center.
   39          1
                                   No pseudopotential on this center.
   40         15
                                   No pseudopotential on this center.
   41          6
                                   No pseudopotential on this center.
   42          6
                                   No pseudopotential on this center.
   43          6
                                   No pseudopotential on this center.
   44          6
                                   No pseudopotential on this center.
   45          6
                                   No pseudopotential on this center.
   46          6
                                   No pseudopotential on this center.
   47          6
                                   No pseudopotential on this center.
   48          6
                                   No pseudopotential on this center.
   49          6
                                   No pseudopotential on this center.
   50          6
                                   No pseudopotential on this center.
   51          6
                                   No pseudopotential on this center.
   52          6
                                   No pseudopotential on this center.
   53          6
                                   No pseudopotential on this center.
   54          6
                                   No pseudopotential on this center.
   55          6
                                   No pseudopotential on this center.
   56          6
                                   No pseudopotential on this center.
   57          6
                                   No pseudopotential on this center.
   58          6
                                   No pseudopotential on this center.
   59          1
                                   No pseudopotential on this center.
   60          1
                                   No pseudopotential on this center.
   61          1
                                   No pseudopotential on this center.
   62          1
                                   No pseudopotential on this center.
   63          1
                                   No pseudopotential on this center.
   64          1
                                   No pseudopotential on this center.
   65          1
                                   No pseudopotential on this center.
   66          1
                                   No pseudopotential on this center.
   67          1
                                   No pseudopotential on this center.
   68          1
                                   No pseudopotential on this center.
   69          1
                                   No pseudopotential on this center.
   70          1
                                   No pseudopotential on this center.
   71          1
                                   No pseudopotential on this center.
   72          1
                                   No pseudopotential on this center.
   73          1
                                   No pseudopotential on this center.
   74          1
                                   No pseudopotential on this center.
   75         46           18
                                      F and up 
                                                     0      598.3336444       -0.05631770    0.00000000
                                                     1      162.4298290      -20.12880360    0.00000000
                                                     2       51.5714771     -105.81979230    0.00000000
                                                     2       16.4888260      -42.57333450    0.00000000
                                                     2        5.8287656       -3.61650860    0.00000000
                                      S - F
                                                     0       73.3806304        3.00036510    0.00000000
                                                     1       14.7550438       32.43500930    0.00000000
                                                     2       17.8350204      459.08303830    0.00000000
                                                     2       12.7111477     -868.06290290    0.00000000
                                                     2        9.3292063      514.47260980    0.00000000
                                      P - F
                                                     0       55.6689877        4.95930990    0.00000000
                                                     1       64.2337771       21.17110290    0.00000000
                                                     2       17.6254952      605.05600920    0.00000000
                                                     2       11.9058155     -726.96418460    0.00000000
                                                     2        8.5100832      396.32748830    0.00000000
                                      D - F
                                                     0       49.9994728        3.05087450    0.00000000
                                                     1       39.7477547       22.25065800    0.00000000
                                                     2       11.4321366      674.83576980    0.00000000
                                                     2        9.1790080    -1040.85540480    0.00000000
                                                     2        7.5624429      505.93751470    0.00000000
   76         17
                                   No pseudopotential on this center.
   77         17
                                   No pseudopotential on this center.
 ======================================================================================================
 There are   764 symmetry adapted cartesian basis functions of A   symmetry.
 There are   764 symmetry adapted basis functions of A   symmetry.
   764 basis functions,  1505 primitive gaussians,   764 cartesian basis functions
   178 alpha electrons      178 beta electrons
       nuclear repulsion energy      7098.1504716902 Hartrees.
 NAtoms=   77 NActive=   77 NUniq=   77 SFac= 1.00D+00 NAtFMM=   60 NAOKFM=T Big=T
 Integral buffers will be    131072 words long.
 Raffenetti 2 integral format.
 Two-electron integral symmetry is turned on.
 Nuclear repulsion after empirical dispersion term =     7097.9951483779 Hartrees.
 Standard density basis: Auto (5D, 7F)
  3340 Density fitting functions
 There are  3340 symmetry adapted density basis functions of A   symmetry.
 One-electron integrals computed using PRISM.
   1 Symmetry operations used in ECPInt.
 ECPInt:  NShTT=   31878 NPrTT=  214492 LenC2=   24665 LenP2D=   83212.
 LDataN:  DoStor=T MaxTD1= 5 Len=  102
 NBasis=   764 RedAO= T EigKep=  3.83D-04  NBF=   764
 NBsUse=   764 1.00D-06 EigRej= -1.00D+00 NBFU=   764
 NBasis=      764 NBas6D=      764 NTT=      292230   NTT6D=   292230
 NDBShl=      660 NDBF=       3340 NDBF6D=     3940  NNucDB=        0
 IDenFi=        2 ISolve=        0 FullAP=F BlkAPC=T NucTyp=        0
 TolInv= 1.00D-06 TolIt=  1.00D-10 IR12=0.
 FoFCou: FMM=F IPFlag=           0 FMFlag=           0 FMFlg1=           0
         NFxFlg=           0 DoJE=F BraDBF=T KetDBF=T FulRan=T
         wScrn=  0.000000 ICntrl=     600 IOpCl=  3 I1Cent=           6 NGrid=           0
         NMat0=    1 NMatS0=   3940 NMatT0=    0 NMatD0=    1 NMtDS0=    0 NMtDT0=    0
 Petite list used in FoFCou.
 DBF EigKep=  1.06D-06 EigRej= -1.00D+00
 NDBF=   3340  NBFD=  3340
 NRank=  3340 NBFDU=  3340
 S*AI*S=  12.5415008623    
 Defaulting to unpruned grid for atomic number  46.
 ExpMin= 2.62D-02 ExpMax= 2.52D+04 ExpMxC= 3.78D+03 IAcc=3 IRadAn=         5 AccDes= 0.00D+00
 Harris functional with IExCor= 1009 and IRadAn=       5 diagonalized for initial guess.
 HarFok:  IExCor= 1009 AccDes= 0.00D+00 IRadAn=         5 IDoV= 1 UseB2=F ITyADJ=14
 ICtDFT=  3500011 ScaDFX=  1.000000  1.000000  1.000000  1.000000
 Defaulting to unpruned grid for atomic number  46.
 Defaulting to unpruned grid for atomic number  46.
 Defaulting to unpruned grid for atomic number  46.
 Defaulting to unpruned grid for atomic number  46.
 Defaulting to unpruned grid for atomic number  46.
 Defaulting to unpruned grid for atomic number  46.
 Defaulting to unpruned grid for atomic number  46.
 Defaulting to unpruned grid for atomic number  46.
 Defaulting to unpruned grid for atomic number  46.
 Defaulting to unpruned grid for atomic number  46.
 Defaulting to unpruned grid for atomic number  46.
 Defaulting to unpruned grid for atomic number  46.
 Defaulting to unpruned grid for atomic number  46.
 Defaulting to unpruned grid for atomic number  46.
 FoFCou: FMM=F IPFlag=           0 FMFlag=      100000 FMFlg1=        2001
         NFxFlg=           0 DoJE=T BraDBF=F KetDBF=T FulRan=T
         wScrn=  0.000000 ICntrl=     500 IOpCl=  0 I1Cent=   200000004 NGrid=           0
         NMat0=    1 NMatS0=      1 NMatT0=    0 NMatD0=    1 NMtDS0=    0 NMtDT0=    0
 Petite list used in FoFCou.
 Requested convergence on RMS density matrix=1.00D-08 within 500 cycles.
 Requested convergence on MAX density matrix=1.00D-06.
 Requested convergence on             energy=1.00D-06.
 No special actions if energy rises.
 FoFCou: FMM=F IPFlag=           0 FMFlag=      100000 FMFlg1=        2001
         NFxFlg=           0 DoJE=T BraDBF=T KetDBF=F FulRan=T
         wScrn=  0.000000 ICntrl=     500 IOpCl=  0 I1Cent=           5 NGrid=           0
         NMat0=    1 NMatS0=      1 NMatT0=    0 NMatD0=    1 NMtDS0=    0 NMtDT0=    0
 Symmetry not used in FoFCou.
 Defaulting to unpruned grid for atomic number  46.
 Defaulting to unpruned grid for atomic number  46.
 Defaulting to unpruned grid for atomic number  46.
 Defaulting to unpruned grid for atomic number  46.
 Defaulting to unpruned grid for atomic number  46.
 Defaulting to unpruned grid for atomic number  46.
 Defaulting to unpruned grid for atomic number  46.
 Defaulting to unpruned grid for atomic number  46.
 Defaulting to unpruned grid for atomic number  46.
 Defaulting to unpruned grid for atomic number  46.
 Defaulting to unpruned grid for atomic number  46.
 Defaulting to unpruned grid for atomic number  46.
 Defaulting to unpruned grid for atomic number  46.
 Defaulting to unpruned grid for atomic number  46.
 EnCoef did   100 forward-backward iterations
 EnCoef did   100 forward-backward iterations
 EnCoef did   100 forward-backward iterations
 EnCoef did   100 forward-backward iterations
 EnCoef did     1 forward-backward iterations
 EnCoef did     5 forward-backward iterations
 EnCoef did   100 forward-backward iterations
 EnCoef did   100 forward-backward iterations
 EnCoef did     5 forward-backward iterations
 Initial convergence to 1.0D-05 achieved.  Increase integral accuracy.
 SCF Done:  E(RPBE-PBE) =  -3307.99650999     A.U. after   30 cycles
            NFock= 30  Conv=0.43D-08     -V/T= 2.0320

 **********************************************************************

            Population analysis using the SCF density.

 **********************************************************************

 Orbital symmetries:
       Occupied  (A) (A) (A) (A) (A) (A) (A) (A) (A) (A) (A) (A)
                 (A) (A) (A) (A) (A) (A) (A) (A) (A) (A) (A) (A)
                 (A) (A) (A) (A) (A) (A) (A) (A) (A) (A) (A) (A)
                 (A) (A) (A) (A) (A) (A) (A) (A) (A) (A) (A) (A)
                 (A) (A) (A) (A) (A) (A) (A) (A) (A) (A) (A) (A)
                 (A) (A) (A) (A) (A) (A) (A) (A) (A) (A) (A) (A)
                 (A) (A) (A) (A) (A) (A) (A) (A) (A) (A) (A) (A)
                 (A) (A) (A) (A) (A) (A) (A) (A) (A) (A) (A) (A)
                 (A) (A) (A) (A) (A) (A) (A) (A) (A) (A) (A) (A)
                 (A) (A) (A) (A) (A) (A) (A) (A) (A) (A) (A) (A)
                 (A) (A) (A) (A) (A) (A) (A) (A) (A) (A) (A) (A)
                 (A) (A) (A) (A) (A) (A) (A) (A) (A) (A) (A) (A)
                 (A) (A) (A) (A) (A) (A) (A) (A) (A) (A) (A) (A)
                 (A) (A) (A) (A) (A) (A) (A) (A) (A) (A) (A) (A)
                 (A) (A) (A) (A) (A) (A) (A) (A) (A) (A)
       Virtual   (A) (A) (A) (A) (A) (A) (A) (A) (A) (A) (A) (A)
                 (A) (A) (A) (A) (A) (A) (A) (A) (A) (A) (A) (A)
                 (A) (A) (A) (A) (A) (A) (A) (A) (A) (A) (A) (A)
                 (A) (A) (A) (A) (A) (A) (A) (A) (A) (A) (A) (A)
                 (A) (A) (A) (A) (A) (A) (A) (A) (A) (A) (A) (A)
                 (A) (A) (A) (A) (A) (A) (A) (A) (A) (A) (A) (A)
                 (A) (A) (A) (A) (A) (A) (A) (A) (A) (A) (A) (A)
                 (A) (A) (A) (A) (A) (A) (A) (A) (A) (A) (A) (A)
                 (A) (A) (A) (A) (A) (A) (A) (A) (A) (A) (A) (A)
                 (A) (A) (A) (A) (A) (A) (A) (A) (A) (A) (A) (A)
                 (A) (A) (A) (A) (A) (A) (A) (A) (A) (A) (A) (A)
                 (A) (A) (A) (A) (A) (A) (A) (A) (A) (A) (A) (A)
                 (A) (A) (A) (A) (A) (A) (A) (A) (A) (A) (A) (A)
                 (A) (A) (A) (A) (A) (A) (A) (A) (A) (A) (A) (A)
                 (A) (A) (A) (A) (A) (A) (A) (A) (A) (A) (A) (A)
                 (A) (A) (A) (A) (A) (A) (A) (A) (A) (A) (A) (A)
                 (A) (A) (A) (A) (A) (A) (A) (A) (A) (A) (A) (A)
                 (A) (A) (A) (A) (A) (A) (A) (A) (A) (A) (A) (A)
                 (A) (A) (A) (A) (A) (A) (A) (A) (A) (A) (A) (A)
                 (A) (A) (A) (A) (A) (A) (A) (A) (A) (A) (A) (A)
                 (A) (A) (A) (A) (A) (A) (A) (A) (A) (A) (A) (A)
                 (A) (A) (A) (A) (A) (A) (A) (A) (A) (A) (A) (A)
                 (A) (A) (A) (A) (A) (A) (A) (A) (A) (A) (A) (A)
                 (A) (A) (A) (A) (A) (A) (A) (A) (A) (A) (A) (A)
                 (A) (A) (A) (A) (A) (A) (A) (A) (A) (A) (A) (A)
                 (A) (A) (A) (A) (A) (A) (A) (A) (A) (A) (A) (A)
                 (A) (A) (A) (A) (A) (A) (A) (A) (A) (A) (A) (A)
                 (A) (A) (A) (A) (A) (A) (A) (A) (A) (A) (A) (A)
                 (A) (A) (A) (A) (A) (A) (A) (A) (A) (A) (A) (A)
                 (A) (A) (A) (A) (A) (A) (A) (A) (A) (A) (A) (A)
                 (A) (A) (A) (A) (A) (A) (A) (A) (A) (A) (A) (A)
                 (A) (A) (A) (A) (A) (A) (A) (A) (A) (A) (A) (A)
                 (A) (A) (A) (A) (A) (A) (A) (A) (A) (A) (A) (A)
                 (A) (A) (A) (A) (A) (A) (A) (A) (A) (A) (A) (A)
                 (A) (A) (A) (A) (A) (A) (A) (A) (A) (A) (A) (A)
                 (A) (A) (A) (A) (A) (A) (A) (A) (A) (A) (A) (A)
                 (A) (A) (A) (A) (A) (A) (A) (A) (A) (A) (A) (A)
                 (A) (A) (A) (A) (A) (A) (A) (A) (A) (A) (A) (A)
                 (A) (A) (A) (A) (A) (A) (A) (A) (A) (A) (A) (A)
                 (A) (A) (A) (A) (A) (A) (A) (A) (A) (A) (A) (A)
                 (A) (A) (A) (A) (A) (A) (A) (A) (A) (A) (A) (A)
                 (A) (A) (A) (A) (A) (A) (A) (A) (A) (A) (A) (A)
                 (A) (A) (A) (A) (A) (A) (A) (A) (A) (A) (A) (A)
                 (A) (A) (A) (A) (A) (A) (A) (A) (A) (A) (A) (A)
                 (A) (A) (A) (A) (A) (A) (A) (A) (A) (A) (A) (A)
                 (A) (A) (A) (A) (A) (A) (A) (A) (A) (A) (A) (A)
                 (A) (A) (A) (A) (A) (A) (A) (A) (A) (A) (A) (A)
                 (A) (A) (A) (A) (A) (A) (A) (A) (A) (A) (A) (A)
                 (A) (A) (A) (A) (A) (A) (A) (A) (A) (A)
 The electronic state is 1-A.
 Alpha  occ. eigenvalues -- -100.58799-100.58276 -76.37701 -76.37585 -18.83807
 Alpha  occ. eigenvalues --   -9.98130  -9.97768  -9.94623  -9.93496  -9.93292
 Alpha  occ. eigenvalues --   -9.93239  -9.92989  -9.92955  -9.92615  -9.92561
 Alpha  occ. eigenvalues --   -9.92557  -9.92414  -9.92174  -9.92138  -9.91966
 Alpha  occ. eigenvalues --   -9.91678  -9.91640  -9.91540  -9.91462  -9.91453
 Alpha  occ. eigenvalues --   -9.91423  -9.91372  -9.91352  -9.91321  -9.91200
 Alpha  occ. eigenvalues --   -9.91181  -9.91142  -9.91120  -9.90758  -9.90713
 Alpha  occ. eigenvalues --   -9.90285  -9.90245  -9.90223  -9.89928  -9.89904
 Alpha  occ. eigenvalues --   -9.89675  -9.89622  -9.89543  -9.89461  -9.08326
 Alpha  occ. eigenvalues --   -9.07797  -6.90691  -6.90181  -6.89914  -6.89850
 Alpha  occ. eigenvalues --   -6.89391  -6.89297  -6.35397  -6.35296  -4.57229
 Alpha  occ. eigenvalues --   -4.57214  -4.57153  -4.57086  -4.56886  -4.56786
 Alpha  occ. eigenvalues --   -3.19023  -1.95938  -1.95864  -1.91811  -1.02977
 Alpha  occ. eigenvalues --   -0.79836  -0.79562  -0.78246  -0.77798  -0.77133
 Alpha  occ. eigenvalues --   -0.76287  -0.75259  -0.71409  -0.70202  -0.69790
 Alpha  occ. eigenvalues --   -0.68324  -0.68070  -0.67791  -0.67542  -0.67119
 Alpha  occ. eigenvalues --   -0.67092  -0.66497  -0.66413  -0.66167  -0.64010
 Alpha  occ. eigenvalues --   -0.63348  -0.62826  -0.60558  -0.59981  -0.58954
 Alpha  occ. eigenvalues --   -0.58147  -0.55326  -0.55179  -0.54568  -0.54321
 Alpha  occ. eigenvalues --   -0.54068  -0.53705  -0.53301  -0.53202  -0.51785
 Alpha  occ. eigenvalues --   -0.51319  -0.50109  -0.50053  -0.46823  -0.46536
 Alpha  occ. eigenvalues --   -0.45962  -0.45495  -0.44908  -0.43946  -0.43583
 Alpha  occ. eigenvalues --   -0.42352  -0.42251  -0.41245  -0.41117  -0.40786
 Alpha  occ. eigenvalues --   -0.40566  -0.40382  -0.39961  -0.39706  -0.39629
 Alpha  occ. eigenvalues --   -0.39488  -0.38987  -0.38075  -0.37933  -0.37829
 Alpha  occ. eigenvalues --   -0.37602  -0.37057  -0.36973  -0.36636  -0.36325
 Alpha  occ. eigenvalues --   -0.36240  -0.35383  -0.35309  -0.35101  -0.34701
 Alpha  occ. eigenvalues --   -0.34228  -0.34073  -0.33799  -0.33234  -0.32415
 Alpha  occ. eigenvalues --   -0.32253  -0.32028  -0.31505  -0.31320  -0.31006
 Alpha  occ. eigenvalues --   -0.30828  -0.30709  -0.30584  -0.30412  -0.30012
 Alpha  occ. eigenvalues --   -0.29707  -0.29579  -0.29130  -0.28836  -0.28671
 Alpha  occ. eigenvalues --   -0.27950  -0.26378  -0.25268  -0.24914  -0.24280
 Alpha  occ. eigenvalues --   -0.23754  -0.23320  -0.23177  -0.23059  -0.22945
 Alpha  occ. eigenvalues --   -0.22793  -0.22444  -0.22209  -0.22121  -0.21304
 Alpha  occ. eigenvalues --   -0.21201  -0.20760  -0.20373  -0.17999  -0.17408
 Alpha  occ. eigenvalues --   -0.17301  -0.16468  -0.16312
 Alpha virt. eigenvalues --   -0.09337  -0.07137  -0.06208  -0.05558  -0.05112
 Alpha virt. eigenvalues --   -0.04964  -0.04729  -0.04242  -0.04035  -0.03701
 Alpha virt. eigenvalues --   -0.03214  -0.03008  -0.02237   0.00202   0.02132
 Alpha virt. eigenvalues --    0.02324   0.03191   0.04393   0.04707   0.05217
 Alpha virt. eigenvalues --    0.05643   0.05915   0.06541   0.07158   0.07855
 Alpha virt. eigenvalues --    0.08162   0.08416   0.08631   0.08898   0.09194
 Alpha virt. eigenvalues --    0.09394   0.09840   0.10168   0.10508   0.10823
 Alpha virt. eigenvalues --    0.11057   0.11360   0.12013   0.12028   0.12141
 Alpha virt. eigenvalues --    0.12178   0.12579   0.12631   0.13442   0.13502
 Alpha virt. eigenvalues --    0.13895   0.13944   0.14331   0.14738   0.15029
 Alpha virt. eigenvalues --    0.15269   0.15755   0.15868   0.16266   0.16399
 Alpha virt. eigenvalues --    0.16567   0.16902   0.16958   0.17074   0.17622
 Alpha virt. eigenvalues --    0.17842   0.18303   0.18797   0.19013   0.20110
 Alpha virt. eigenvalues --    0.20304   0.20390   0.21391   0.22220   0.22756
 Alpha virt. eigenvalues --    0.23741   0.23848   0.24280   0.24822   0.25289
 Alpha virt. eigenvalues --    0.25583   0.25757   0.25991   0.26402   0.26680
 Alpha virt. eigenvalues --    0.26861   0.27119   0.27536   0.27679   0.27824
 Alpha virt. eigenvalues --    0.28682   0.28810   0.28969   0.29333   0.29498
 Alpha virt. eigenvalues --    0.30922   0.31200   0.31744   0.32675   0.33005
 Alpha virt. eigenvalues --    0.33704   0.34886   0.36484   0.36725   0.37602
 Alpha virt. eigenvalues --    0.38653   0.39650   0.40539   0.40929   0.41562
 Alpha virt. eigenvalues --    0.42730   0.43910   0.44287   0.44582   0.45347
 Alpha virt. eigenvalues --    0.45627   0.46125   0.46535   0.46786   0.46938
 Alpha virt. eigenvalues --    0.46982   0.47149   0.47346   0.47864   0.48292
 Alpha virt. eigenvalues --    0.48523   0.48574   0.48883   0.49374   0.49510
 Alpha virt. eigenvalues --    0.49826   0.50158   0.50566   0.50626   0.50766
 Alpha virt. eigenvalues --    0.50952   0.51194   0.51525   0.51691   0.51911
 Alpha virt. eigenvalues --    0.52298   0.52472   0.52714   0.52823   0.53113
 Alpha virt. eigenvalues --    0.53418   0.53586   0.53792   0.53969   0.54195
 Alpha virt. eigenvalues --    0.54604   0.54839   0.55088   0.55237   0.55333
 Alpha virt. eigenvalues --    0.55622   0.55889   0.56331   0.56413   0.56548
 Alpha virt. eigenvalues --    0.56692   0.56926   0.57171   0.57291   0.57935
 Alpha virt. eigenvalues --    0.58379   0.58606   0.58631   0.58862   0.59229
 Alpha virt. eigenvalues --    0.59582   0.59727   0.59847   0.60657   0.60881
 Alpha virt. eigenvalues --    0.61401   0.61891   0.62436   0.62765   0.63419
 Alpha virt. eigenvalues --    0.63689   0.64445   0.64881   0.65896   0.66058
 Alpha virt. eigenvalues --    0.66984   0.67485   0.67776   0.68307   0.68736
 Alpha virt. eigenvalues --    0.69020   0.69183   0.69916   0.70873   0.71385
 Alpha virt. eigenvalues --    0.71777   0.71989   0.73204   0.73489   0.73916
 Alpha virt. eigenvalues --    0.74503   0.74974   0.75593   0.76042   0.76278
 Alpha virt. eigenvalues --    0.76609   0.76846   0.77475   0.77896   0.77951
 Alpha virt. eigenvalues --    0.78376   0.78517   0.79020   0.79296   0.79411
 Alpha virt. eigenvalues --    0.79675   0.79955   0.80164   0.80364   0.80677
 Alpha virt. eigenvalues --    0.80765   0.80950   0.81346   0.81857   0.81961
 Alpha virt. eigenvalues --    0.82040   0.82528   0.83049   0.83255   0.83357
 Alpha virt. eigenvalues --    0.83880   0.84388   0.84554   0.84928   0.85030
 Alpha virt. eigenvalues --    0.85350   0.85745   0.86322   0.86407   0.86604
 Alpha virt. eigenvalues --    0.86931   0.87729   0.88207   0.88524   0.88595
 Alpha virt. eigenvalues --    0.88651   0.89482   0.89553   0.90214   0.90379
 Alpha virt. eigenvalues --    0.90973   0.91334   0.91491   0.91644   0.91949
 Alpha virt. eigenvalues --    0.91987   0.92602   0.92877   0.93286   0.93797
 Alpha virt. eigenvalues --    0.93980   0.94641   0.95241   0.95467   0.96062
 Alpha virt. eigenvalues --    0.96194   0.96607   0.96992   0.97466   0.97829
 Alpha virt. eigenvalues --    0.98273   0.98557   0.98848   1.00104   1.00215
 Alpha virt. eigenvalues --    1.00344   1.01244   1.01520   1.02107   1.03045
 Alpha virt. eigenvalues --    1.03312   1.03680   1.04497   1.04736   1.05407
 Alpha virt. eigenvalues --    1.05719   1.06482   1.06881   1.07867   1.08146
 Alpha virt. eigenvalues --    1.08716   1.09231   1.09501   1.09928   1.10206
 Alpha virt. eigenvalues --    1.10811   1.10929   1.11647   1.12162   1.12721
 Alpha virt. eigenvalues --    1.13411   1.13702   1.15365   1.15453   1.15625
 Alpha virt. eigenvalues --    1.17229   1.17843   1.18196   1.18877   1.19247
 Alpha virt. eigenvalues --    1.19510   1.20809   1.21580   1.21832   1.22401
[...]
 6,0.00149450,0.00020623,-0.00105774,0.00004899,-0.00011200,0.00014773,
 0.00010364,-0.00051132,0.00008686,-0.00024620,-0.00008962,0.00001758,-
 0.00016827,-0.00028307,0.00006785,0.00004195,0.00010395,-0.00005731,0.
 00006981,0.00004058,0.00002870,0.00000263,-0.00007049,-0.00022756,-0.0
 0000333,0.00000410,-0.00000789,-0.00000591,-0.00002109,0.00001342,-0.0
 0002129,0.00001765,0.00007180,0.00027748,-0.00004557,0.00010910,-0.000
 01674,-0.00000109,-0.00000027,-0.00006865,-0.00000242,-0.00002315,-0.0
 0001386,0.00000590,0.00001392,0.00004203,0.00000910,0.00001478,-0.0000
 7538,0.00007571,0.00001850,0.00003250,0.00001183,-0.00003567,0.0000579
 5,0.00001273,-0.00000400,0.00010032,-0.00012519,-0.00008460,-0.0001270
 2,0.00007059,-0.00003232,0.01070954,-0.06224899,0.11437980,-0.00198686
 ,-0.00280569,-0.00294608,-0.00121857,-0.00043565,-0.00036003,0.0004927
 4,0.00010312,0.00071793,-0.00014437,0.00005282,0.00010492,-0.00015214,
 -0.00000642,0.00011515,0.00006452,-0.00004411,-0.00021859,-0.00125849,
 -0.00008598,0.00016718,0.00125551,-0.00080661,0.00064970,-0.00024900,-
 0.00001443,-0.00009511,0.00013075,0.00002723,0.00002828,0.00014679,-0.
 00003545,0.00005692,-0.00314826,-0.00001987,0.00128857,0.00008420,-0.0
 0071000,-0.00109347,0.00004059,-0.00028663,0.00028924,-0.00004719,-0.0
 0016318,-0.00002804,0.00001509,-0.00004126,0.00014834,0.00002544,-0.00
 004277,0.00025874,-0.00111493,-0.00083177,0.00057020,-0.00020403,0.000
 70344,0.00026062,-0.00001727,0.00013041,0.00006928,0.00012474,0.000011
 80,-0.00021248,-0.00012746,0.00003449,-0.00030616,0.00009704,-0.000306
 07,-0.00023365,0.00009243,-0.00001824,-0.00007001,-0.00002761,-0.00000
 527,0.00003951,-0.00003198,-0.00000051,0.00011845,-0.00002833,0.000008
 59,-0.00001985,0.00001048,-0.00002933,-0.00005097,-0.00007598,-0.00003
 893,-0.00004684,0.00002005,-0.00005032,-0.00003395,-0.00000420,-0.0000
 6129,0.00009707,-0.00007950,0.00003072,0.00001697,-0.00004123,0.000086
 17,-0.00001339,-0.00001074,-0.00010913,0.00007953,-0.00011515,0.000102
 35,-0.00002783,-0.00007821,-0.00016891,-0.00004559,-0.00004969,-0.0000
 4302,-0.00004391,-0.00001219,-0.00004878,-0.00009016,-0.00002383,0.000
 23956,0.00020541,-0.00501255,-0.00400860,0.00110018,0.00116158,-0.0002
 3393,-0.00035941,-0.00021540,0.00009708,0.00006355,0.00021936,-0.00008
 049,0.00019397,-0.00000236,0.00000498,-0.00011878,0.00013181,0.0000503
 3,0.00033226,-0.00150956,0.00080643,-0.00121210,0.00056803,-0.00053049
 ,0.00028613,0.00011835,0.00003132,0.00002226,-0.00000765,0.00000014,-0
 .00009089,0.00004984,0.00005140,0.00002406,0.00003620,0.00000247,-0.00
 001450,0.00003260,0.00000688,0.00008091,0.00011804,0.00140030,0.000468
 67,0.00062938,-0.00007616,0.00002403,-0.00000571,-0.00013739,-0.000184
 30,-0.00031630,0.00011463,-0.00002838,0.00020725,0.00026162,-0.0002048
 0,0.00094867,0.00128108,0.00124188,0.00006480,-0.00016416,0.00009942,-
 0.00001000,-0.00003480,0.00001450,0.00000705,-0.00001351,0.00004716,0.
 00002584,0.00001497,0.00008000,0.00003192,0.00007129,0.00008316,-0.000
 02566,0.00013093,-0.00008215,-0.00072525,0.00043588,-0.00018866,-0.000
 04985,-0.00003282,-0.00001349,-0.00001821,0.00003218,-0.00001482,-0.00
 001147,0.00002045,-0.00001995,-0.00004415,0.00005369,-0.00001144,-0.00
 012810,0.00000770,-0.00007184,0.00007222,-0.00007162,-0.00003768,-0.00
 004708,0.00004960,-0.00002781,-0.00002334,-0.00002655,-0.00008025,-0.0
 0008356,0.00003094,-0.00007271,-0.05993422,-0.02151254,-0.00045004,0.0
 7415289,-0.00049385,0.00339703,-0.00049375,-0.00058156,-0.00037486,-0.
 00019565,0.00021718,-0.00001593,0.00032173,-0.00006157,0.00005078,0.00
 003188,-0.00006918,-0.00001102,0.00002762,0.00006205,0.00004098,-0.000
 11278,-0.00058848,-0.00004613,-0.00002942,0.00038864,0.00012667,0.0001
 3169,-0.00004710,-0.00006248,-0.00003005,0.00001979,0.00004868,0.00001
 633,0.00000370,-0.00004615,0.00011186,0.00027139,-0.00005978,0.0001487
 5,0.00002196,0.00002279,-0.00009469,-0.00003287,0.00003753,0.00000867,
 0.00004136,0.00003064,-0.00002134,-0.00003571,-0.00006288,0.00001367,0
 .00006315,0.00010171,0.00002664,-0.00074505,-0.00050301,0.00014032,-0.
 00011296,0.00038618,0.00018291,-0.00002030,0.00001009,0.00001247,0.000
 00881,0.00002551,-0.00012866,-0.00000584,-0.00000263,-0.00011764,0.000
 01410,-0.00017173,-0.00012062,0.00002674,-0.00001488,-0.00002477,-0.00
 000257,-0.00001219,0.00001333,-0.00001202,0.00000902,0.00004648,0.0000
 0339,0.00002325,-0.00002383,-0.00000928,-0.00000986,-0.00000598,-0.000
 07520,-0.00002688,-0.00001948,0.00001654,0.00001557,-0.00002774,-0.000
 01201,-0.00002360,0.00003518,-0.00003171,0.00000846,0.00001086,-0.0000
 2267,0.00004080,-0.00001144,-0.00004807,-0.00007214,0.00004387,0.00002
 652,-0.00000426,0.00000809,-0.00000231,-0.00001000,0.00000132,-0.00000
 418,-0.00000701,-0.00000465,0.00000784,-0.00000740,-0.00000314,0.00000
 221,0.00001266,0.00006385,-0.00065580,-0.00335552,0.00114663,-0.000786
 22,0.00038351,-0.00023955,0.00000633,-0.00003218,-0.00024316,-0.000111
 77,0.00005811,-0.00002113,-0.00000648,0.00003199,0.00006860,0.00009452
 ,0.00011706,0.00009976,0.00005506,-0.00030965,0.00017023,0.00006808,-0
 .00028347,0.00044588,-0.00022963,-0.00028168,-0.00005070,-0.00006063,0
 .00001629,0.00009058,0.00000956,0.00000597,0.00002499,-0.00000399,0.00
 002322,-0.00008389,-0.00018581,-0.00009463,0.00003392,0.00008691,-0.00
 140938,-0.00078615,-0.00116974,0.00097421,-0.00007375,0.00047029,-0.00
 044943,0.00068502,0.00078975,-0.00023168,-0.00060272,-0.00076690,-0.00
 032679,0.00068461,0.00134232,-0.00545537,-0.00353303,-0.00006398,-0.00
 005478,-0.00007627,-0.00002001,-0.00002311,0.00001275,0.00000254,-0.00
 002222,-0.00000291,0.00001348,-0.00000656,0.00002272,0.00001179,0.0000
 2674,0.00004159,-0.00001149,-0.00007032,0.00002561,0.00090403,-0.00429
 545,-0.00073713,-0.00003433,-0.00004191,-0.00000109,-0.00002783,-0.000
 03320,0.00002048,-0.00000708,-0.00001180,0.00000490,-0.00000714,-0.000
 02930,0.00000079,0.00004595,0.00001709,0.00003531,-0.00010461,-0.00009
 397,-0.00017275,0.00012173,-0.00008612,0.00009361,-0.00000965,0.000013
 19,0.00003063,-0.00003222,0.00002645,-0.00003658,-0.02725860,-0.023596
 22,0.00212690,0.02541370,0.03316924,-0.00000907,0.00074837,0.00407274,
 -0.00134269,-0.00047643,-0.00032308,0.00022437,0.00006846,0.00057068,-
 0.00012129,0.00002638,0.00003622,-0.00009997,-0.00001997,0.00004303,0.
 00013563,0.00000467,-0.00020226,-0.00095400,-0.00009802,-0.00000233,0.
 00100447,0.00027774,0.00009075,-0.00015563,0.00001090,0.00002376,0.000
 06616,-0.00000534,0.00002691,0.00008230,-0.00002696,0.00005677,0.00020
 414,0.00007120,-0.00010194,-0.00000005,0.00005136,0.00002780,0.0000037
 7,0.00002530,0.00001881,0.00004594,0.00001672,-0.00002552,0.00002006,-
 0.00008593,0.00001421,0.00013763,0.00014390,-0.00005820,0.00024017,0.0
 0003245,-0.00014946,0.00004613,-0.00001318,0.00007763,0.00003751,-0.00
 000548,0.00001264,-0.00002659,-0.00000035,0.00001875,-0.00007789,-0.00
 001245,0.00001873,0.00013726,0.00002343,-0.00002054,0.00002330,-0.0000
 1517,-0.00001401,-0.00000052,-0.00000965,0.00000215,-0.00000657,0.0000
 0824,0.00007208,-0.00001557,0.00001104,-0.00000929,0.00002678,-0.00001
 645,-0.00002435,-0.00007500,0.00001951,-0.00000659,0.00003761,-0.00002
 968,-0.00003146,0.00001930,0.00001072,-0.00001958,0.00000308,0.0000032
 7,-0.00000689,-0.00000155,0.,0.00000132,0.00000701,-0.00005464,-0.0000
 4300,-0.00000919,0.00000162,-0.00000254,-0.00000786,0.00000842,-0.0000
 0025,-0.00001588,0.00000918,-0.00001221,0.00000409,0.00001139,0.000006
 71,-0.00000963,-0.00005281,-0.00005572,-0.00007463,-0.00102380,-0.0022
 6249,0.00067560,0.00025622,-0.00009022,0.00046524,0.00023048,0.0004109
 3,0.00026106,-0.00013355,-0.00001978,-0.00014382,0.00005523,-0.0002454
 6,-0.00019958,-0.00000961,0.00040115,-0.00033863,0.00024725,-0.0003861
 6,-0.00037475,0.00035512,0.00041916,0.00018620,0.00011281,-0.00016149,
 0.00002594,-0.00006339,-0.00000054,-0.00002124,0.00002368,0.00003503,-
 0.00000448,0.00009394,0.00013101,0.00025693,0.00018180,-0.00020896,0.0
 0054929,0.00007511,0.00042348,0.00044579,-0.00002469,0.00039152,0.0001
 9711,0.00025804,-0.00018193,-0.00012934,-0.00016520,0.00024329,0.00027
 215,-0.00072744,0.00065047,-0.00015476,-0.00164732,-0.00140337,-0.0000
 0506,-0.00009951,-0.00004409,-0.00000161,0.00001541,-0.00000764,-0.000
 01857,-0.00001619,0.00000516,-0.00000673,0.00001270,0.00003835,-0.0000
 0019,0.00004355,0.00003247,0.,-0.00011471,0.00008718,0.00030272,-0.001
 26994,-0.00017980,-0.00004992,0.00002379,0.00003778,0.00000311,0.00001
 454,-0.00000955,0.00000087,0.00001376,0.00000414,0.00002789,0.00004686
 ,-0.00000381,0.00001667,0.00001253,0.00004155,-0.00009591,0.00002205,-
 0.00005057,0.00006146,-0.00010476,0.00003775,-0.00005304,-0.00007321,-
 0.00002919,0.00000808,0.00000236,0.00000111,-0.00032223,0.00184689,-0.
 00934001,0.00297634,0.00125251,0.00788864,-0.00251501,-0.00151900,0.00
 073435,0.00051991,-0.00015592,0.00035416,-0.00011566,-0.00001777,-0.00
 012680,0.00013560,0.00000184,0.00008265,-0.00007770,-0.00001374,0.0000
 1341,0.00013001,0.00004653,-0.00011208,-0.00082504,-0.00005834,0.00021
 137,0.00073886,-0.00022650,-0.00009638,-0.00008494,0.00003165,0.000003
 35,0.00004050,-0.00001216,0.00000886,0.00004846,0.00000410,-0.00000338
 ,0.00015115,-0.00028742,0.00014036,0.00006979,-0.00003473,-0.00000386,
 -0.00000821,0.00001398,0.00000186,0.00001919,-0.00001531,-0.00000564,0
 .00003952,-0.00002971,0.00003311,0.00012171,0.00000505,0.00004525,-0.0
 0284133,-0.00169227,0.00033173,0.00123426,-0.00057093,0.00161232,0.000
 01966,-0.00075152,-0.00067666,-0.00073353,0.00094142,-0.00033523,-0.00
 006583,-0.00058327,0.00111216,-0.00332667,0.00115146,0.00224760,0.0000
 8811,0.00005732,-0.00003438,0.00000422,0.00000251,0.00000200,0.0000085
 2,0.00001620,-0.00001828,-0.00001365,-0.00000436,0.00000889,0.00001890
 ,-0.00000898,-0.00001943,-0.00002982,0.00001968,-0.00000142,0.00001713
 ,-0.00002878,-0.00002158,0.00002973,0.00006271,-0.00013852,-0.00002582
 ,0.00000893,-0.00008515,0.00007999,-0.00003874,0.00004481,-0.00139921,
 -0.00024732,-0.00000100,-0.00002902,0.00002186,-0.00000879,-0.00003258
 ,0.00000132,-0.00000604,-0.00001389,0.00000451,-0.00000929,-0.00001840
 ,0.00001070,-0.00000844,-0.00019348,0.00004419,-0.00010314,0.00295567,
 0.00225716,-0.00192319,-0.00037883,0.00042565,-0.00006009,0.00018562,-
 0.00016672,-0.00019187,-0.00004352,-0.00000784,-0.00003137,-0.00001494
 ,0.00000110,-0.00006393,-0.00002464,0.00000207,0.00008872,-0.00024976,
 0.00012443,-0.00009682,-0.00103867,0.00073576,-0.00082722,0.00004199,0
 .00029645,0.00016510,0.00018794,-0.00004882,0.00007825,0.00007436,0.00
 009752,-0.00007084,0.00010768,-0.00010608,0.00007421,0.00015237,0.0001
 1136,-0.00024968,-0.00000109,-0.00007683,0.00013210,0.00000213,-0.0001
 2569,0.00000684,0.00000099,0.00001463,-0.00001958,-0.00001931,0.000002
 75,0.00003519,0.00002068,-0.00000229,0.00001280,0.00003006,0.00001140,
 -0.00001063,0.00001417,0.00000464,0.00002369,-0.00000136,0.00000243,-0
 .00001342,0.00000274,0.00000006,-0.00004438,-0.00000390,0.00000754,0.0
 0001642,0.00000362,0.00001293,0.00001093,0.00002753,-0.00001087,0.0000
 1381,-0.00001410,0.00002246,0.00004209,-0.00009062,0.00003885,-0.00005
 592,0.00004036,0.00003679,-0.00003184,-0.00001509,0.00003842,-0.000020
 74,0.00000781,0.00006034,0.00001098,-0.00009117,0.00001568,-0.00000777
 ,-0.00000506,-0.00000146,0.00001180,-0.00001864,0.00000744,0.00000148,
 -0.00000484,0.00001318,-0.00000282,0.00001774,-0.00004368,0.00001602,-
 0.01625295,0.00867151,-0.00814489,-0.00275858,0.00393702,-0.00431571,0
 .02598820,-0.00049291,-0.00354980,0.00402421,-0.00060667,-0.00009263,-
 0.00026675,-0.00007564,0.00009550,0.00006662,-0.00011744,0.00003271,-0
 .00002464,0.00006841,0.00002207,-0.00003034,-0.00021218,0.00000473,0.0
 0016392,0.00125900,0.00006048,-0.00027152,-0.00147672,0.00047225,0.000
 14938,0.00016187,-0.00010262,-0.00003751,-0.00007754,0.00007270,-0.000
 01215,-0.00011117,-0.00002520,0.00007250,-0.00003167,-0.00004571,-0.00
 026321,-0.00011113,0.00008610,0.00009025,0.00001960,0.00001224,-0.0000
 6473,-0.00003572,0.00002779,-0.00001932,-0.00014629,0.00001908,0.00013
 673,0.00026321,0.00022382,-0.00033382,0.00014074,0.00014621,-0.0002557
 6,0.00017264,0.00017872,0.00057091,-0.00040422,-0.00030560,-0.00036805
 ,-0.00011095,0.00041877,0.00014956,0.00072633,0.00023723,0.00019402,-0
 .00113701,-0.00030953,-0.00068308,-0.00005627,-0.00009835,0.00007054,-
 0.00000614,-0.00001808,0.00001378,-0.00002237,-0.00001761,0.00001371,0
 .00002988,0.00001956,-0.00002569,-0.00005018,0.00001181,0.00003890,0.0
 0004037,-0.00008036,0.00000044,-0.00004141,0.00006760,0.00003417,0.000
 17499,0.00004289,0.00004069,0.00001332,0.00000222,0.00003738,-0.000122
 69,0.00010408,0.00000789,0.00026313,0.00007220,0.00047958,0.00004702,-
 0.00003503,0.00002063,0.00003887,-0.00000013,0.00002784,0.00000750,-0.
 00002188,0.00001987,0.00003647,-0.00000032,0.00001320,-0.00006058,0.00
 010307,0.00015768,0.00060406,0.00048923,0.00358816,0.00136131,-0.00205
 776,0.00070190,-0.00068360,0.00052437,0.00070133,0.00023490,0.00009159
 ,0.00015965,0.00006643,-0.00004336,0.00015499,0.00009602,0.00007703,-0
 .00016947,0.00075348,-0.00035275,0.00015868,0.00081296,-0.00075289,0.0
 0067867,0.00007461,-0.00037348,-0.00031497,-0.00019986,0.00000221,-0.0
 0010991,-0.00005358,-0.00011675,0.00004598,-0.00020310,0.00005705,-0.0
 0000970,-0.00016679,-0.00003952,0.00042541,-0.00011754,-0.00051197,0.0
 0092911,0.00045106,0.00014990,-0.00045667,0.00002968,-0.00001233,-0.00
 002015,-0.00002946,-0.00012653,0.00008636,-0.00001893,-0.00005286,0.00
 003311,-0.00008582,-0.00000081,-0.00000489,-0.00005765,-0.00009476,-0.
 00004993,-0.00001322,-0.00002248,0.00004070,-0.00000188,0.00000907,0.0
 0015129,0.00001911,-0.00002355,-0.00002351,0.00000723,-0.00001554,-0.0
 0001048,-0.00006022,0.00004926,0.00000767,-0.00002859,-0.00000770,0.00
 009038,0.00010375,-0.00000686,0.00004291,-0.00005954,-0.00004736,0.000
 04546,0.00000931,-0.00005921,0.00002667,-0.00002795,-0.00008340,-0.000
 02411,0.00012230,-0.00002181,0.00004086,0.00005243,-0.00001580,-0.0000
 4973,0.00004704,-0.00002239,-0.00000890,0.00006400,-0.00006085,-0.0000
 2103,-0.00000730,0.00005104,-0.00000254,0.00922529,-0.05268028,0.03255
 277,0.00223206,0.00288813,-0.00038509,-0.01250844,0.05538315,0.0015630
 7,0.00212218,-0.00221990,0.00020449,-0.00005199,0.00028041,-0.00002892
 ,-0.00001981,0.00001724,0.00006715,-0.00001677,0.00002393,-0.00006840,
 -0.00001675,0.00002311,0.00016772,-0.00002158,-0.00010364,-0.00101298,
 -0.00012880,0.00019617,0.00058054,0.00030969,0.00010416,-0.00009173,0.
 00004124,0.00001424,0.00004394,-0.00002264,0.00001653,0.00004648,-0.00
 000139,0.00001932,0.00008430,-0.00000203,-0.00001328,0.00000674,0.0000
 7333,0.00009674,-0.00001922,-0.00001288,0.00003652,0.00001747,-0.00003
 707,-0.00001094,0.00000268,-0.00009342,0.00009203,0.00040721,0.0001705
 8,-0.00015320,0.00023447,0.00107304,-0.00016432,-0.00022423,-0.0001419
 7,0.00006300,-0.00005007,-0.00012561,0.00012405,0.00021826,0.00001804,
 0.00024884,0.00042602,-0.00002911,0.00040559,0.00082397,-0.00084497,-0
 .00120971,0.00002606,0.00003795,-0.00002272,0.00000501,0.00001829,-0.0
 0001483,0.00001239,0.00000464,-0.00000382,-0.00001366,0.00000149,0.000
 00806,0.00003004,-0.00001079,-0.00001844,-0.00000758,0.00002638,0.0000
 1340,0.00002707,-0.00002924,-0.00001679,0.00000935,0.00007020,-0.00004
 630,0.00006167,0.00000495,0.00001383,0.00006396,-0.00001970,-0.0000825
 2,0.00099246,0.00037956,-0.00028511,-0.00006496,-0.00001426,0.00000635
 ,-0.00002449,0.00000490,0.00000282,-0.00003282,0.00000212,-0.00000882,
 -0.00001096,0.00006633,0.00000892,-0.00017828,0.00031532,-0.00022615,-
 0.00066898,0.00261135,0.00306515,-0.00010256,0.00008652,-0.00008540,0.
 00028711,-0.00013350,-0.00007628,-0.00000721,-0.00003546,-0.00008133,-
 0.00003199,0.00001780,-0.00006034,-0.00001608,0.00004492,0.00004764,-0
 .00032098,0.00012045,-0.00014986,-0.00065827,0.00084359,-0.00105279,-0
 .00019817,0.00036695,0.00038733,0.00028102,0.00013476,0.00009898,0.000
 08873,0.00002878,-0.00016984,0.00008565,-0.00013051,0.00007631,0.00019
 620,0.00006043,-0.00043866,-0.00017218,0.00108189,-0.00180292,-0.00069
 710,-0.00031704,0.00059070,-0.00005311,0.00008692,-0.00007285,-0.00003
 803,0.00023736,-0.00004381,0.00014954,0.00001116,-0.00001786,0.0000939
 1,0.00020776,0.00003138,0.00001793,0.00002071,0.00003597,-0.00000718,-
 0.00000941,-0.00002736,-0.00000657,-0.00000473,-0.00004835,-0.00001527
 ,0.00000892,0.00001318,-0.00000841,0.00001824,-0.00000704,0.00004291,-
 0.00004199,-0.00002452,0.00004170,-0.00001738,-0.00022571,-0.00009736,
 0.00001640,-0.00004238,0.00007493,0.00004100,-0.00002786,-0.00000974,0
 .00005373,-0.00002814,0.00001520,0.00008342,0.00001671,-0.00009202,-0.
 00001457,-0.00001797,-0.00007733,0.00002272,0.00005039,-0.00005438,0.0
 0000817,0.00000029,-0.00006962,0.00008887,0.00005450,0.00006982,0.0000
 0474,-0.00005389,-0.00940540,0.03462544,-0.03597517,-0.00320042,-0.000
 38905,-0.00073757,0.01026950,-0.04293881,0.03958460\\-0.00000303,-0.00
 000176,-0.00000134,0.00000297,0.00000090,0.00000042,-0.00000071,-0.000
 00020,0.00000024,-0.00000031,-0.00000021,0.00000061,0.00000033,-0.0000
 0067,-0.00000143,-0.00000330,0.00000024,0.00000117,0.00000661,0.000000
 86,-0.00000118,-0.00000490,0.00000017,-0.00000022,0.00000055,-0.000004
 44,0.00000163,0.00000076,0.00000273,-0.00000213,0.00000089,0.00000389,
 -0.00000133,-0.00000075,-0.00000095,0.00000218,-0.00000021,-0.00000033
 ,0.00000076,0.00000102,-0.00000128,-0.00000024,-0.00000025,-0.00000009
 ,0.00000089,-0.00000092,-0.00000084,0.00000031,0.00000024,0.00000078,-
 0.00000035,-0.00000016,-0.00000292,-0.00000151,-0.00000063,-0.00000088
 ,0.00000092,-0.00000019,-0.00000088,0.00000033,-0.00000104,-0.00000009
 ,-0.00000013,-0.00000145,-0.00000136,-0.00000102,-0.00000006,0.0000009
 8,0.00000187,-0.00000030,-0.00000009,-0.00000003,0.00000091,0.00000063
 ,0.00000092,0.00000003,-0.00000047,0.00000030,0.00000027,0.00000026,0.
 00000110,-0.00000026,0.00000021,-0.00000055,-0.00000026,0.00000042,-0.
 00000015,-0.00000051,0.00000002,-0.00000027,0.00000024,-0.00000116,-0.
 00000007,-0.00000130,-0.00000117,0.00000015,-0.00000068,-0.00000040,-0
 .00000012,-0.00000023,-0.00000048,-0.00000102,0.00000017,-0.00000057,0
 .00000049,-0.00000002,-0.00000065,0.00000104,0.00000035,-0.00000086,0.
 00000062,-0.00000007,-0.00000102,0.00000018,0.00000003,-0.00000035,0.0
 0000023,-0.00000303,-0.00000055,-0.00000436,0.00000134,0.00000247,0.00
 000322,0.00000014,0.00000013,-0.00000105,-0.00000012,0.00000156,-0.000
 00005,0.00000074,-0.00000014,-0.00000154,-0.00000007,0.00000157,0.0000
 0116,0.00000139,-0.00000074,-0.00000169,0.00000108,0.00000064,0.000001
 40,0.00000024,0.00000081,0.00000045,0.00000044,-0.00000062,-0.00000018
 ,0.00000025,0.00000072,0.00000091,0.00000070,0.00000073,0.00000022,-0.
 00000088,-0.00000165,-0.00000005,-0.00000079,0.00000082,-0.00000043,0.
 00000012,-0.00000007,0.00000126,-0.00000040,0.00000069,-0.00000085,0.0
 0000090,0.00000108,-0.00000063,0.00000088,-0.00000062,0.00000025,-0.00
 000044,0.00000144,-0.00000042,0.00000056,0.00000086,-0.00000028,-0.000
 00014,0.00000139,-0.00000006,0.00000057,0.00000057,-0.00000039,0.00000
 064,0.00000031,-0.00000037,0.00000010,0.00000024,-0.00000028,0.0000003
 6,0.00000039,-0.00000040,-0.00000041,-0.00000056,-0.00000053,0.0000001
 0,-0.00000034,0.00000003,0.00000060,0.00000033,0.00000077,0.00000063,-
 0.00000036,0.00000046,0.00000023,-0.00000066,0.00000067,0.00000017,0.0
 0000035,0.00000022,-0.00000010,0.00000032,-0.00000075,0.00000044,0.000
 00067,-0.00000019,0.00000035,0.00000023,0.00000004,-0.00000072,-0.0000
 0144,0.00000018,0.00000428,0.00000084,0.00000275,-0.00000462,0.0000005
 6,-0.00000246,0.00000067,0.00000006,-0.00000033\\\@


 ALL THINGS ARE POSSIBLE EXCEPT SKIING THROUGH A REVOLVING DOOR.
 Job cpu time:       0 days  9 hours 45 minutes 43.8 seconds.
 File lengths (MBytes):  RWF=   5333 Int=      0 D2E=      0 Chk=    144 Scr=      1
 Normal termination of Gaussian 09 at Tue Nov 16 00:40:20 2021.
