 Entering Gaussian System, Link 0=g09
 Input=XantPhos_1.com
 Output=XantPhos_1.log
 Initial command:
 /gstore/apps/gaussian/g09.e01-foss-2017a/g09/l1.exe "/local/21251493/Gau-31956.inp" -scrdir="/local/21251493/"
 Entering Link 1 = /gstore/apps/gaussian/g09.e01-foss-2017a/g09/l1.exe PID=     31957.
  
 Copyright (c) 1988,1990,1992,1993,1995,1998,2003,2009,2015,
            Gaussian, Inc.  All Rights Reserved.
  
 This is part of the Gaussian(R) 09 program.  It is based on
 the Gaussian(R) 03 system (copyright 2003, Gaussian, Inc.),
 the Gaussian(R) 98 system (copyright 1998, Gaussian, Inc.),
 the Gaussian(R) 94 system (copyright 1995, Gaussian, Inc.),
 the Gaussian 92(TM) system (copyright 1992, Gaussian, Inc.),
 the Gaussian 90(TM) system (copyright 1990, Gaussian, Inc.),
 the Gaussian 88(TM) system (copyright 1988, Gaussian, Inc.),
 the Gaussian 86(TM) system (copyright 1986, Carnegie Mellon
 University), and the Gaussian 82(TM) system (copyright 1983,
 Carnegie Mellon University). Gaussian is a federally registered
 trademark of Gaussian, Inc.
  
 This software contains proprietary and confidential information,
 including trade secrets, belonging to Gaussian, Inc.
  
 This software is provided under written license and may be
 used, copied, transmitted, or stored only in accord with that
 written license.
  
 The following legend is applicable only to US Government
 contracts under FAR:
  
                    RESTRICTED RIGHTS LEGEND
  
 Use, reproduction and disclosure by the US Government is
 subject to restrictions as set forth in subparagraphs (a)
 and (c) of the Commercial Computer Software - Restricted
 Rights clause in FAR 52.227-19.
  
 Gaussian, Inc.
 340 Quinnipiac St., Bldg. 40, Wallingford CT 06492
  
  
 ---------------------------------------------------------------
 Warning -- This program may not be used in any manner that
 competes with the business of Gaussian, Inc. or will provide
 assistance to any competitor of Gaussian, Inc.  The licensee
 of this program is prohibited from giving any competitor of
 Gaussian, Inc. access to this program.  By using this program,
 the user acknowledges that Gaussian, Inc. is engaged in the
 business of creating and licensing software in the field of
 computational chemistry and represents and warrants to the
 licensee that it is not a competitor of Gaussian, Inc. and that
 it will not use this program in any manner prohibited above.
 ---------------------------------------------------------------
  

 Cite this work as:
 Gaussian 09, Revision E.01,
 M. J. Frisch, G. W. Trucks, H. B. Schlegel, G. E. Scuseria, 
 M. A. Robb, J. R. Cheeseman, G. Scalmani, V. Barone, B. Mennucci, 
 G. A. Petersson, H. Nakatsuji, M. Caricato, X. Li, H. P. Hratchian, 
 A. F. Izmaylov, J. Bloino, G. Zheng, J. L. Sonnenberg, M. Hada, 
 M. Ehara, K. Toyota, R. Fukuda, J. Hasegawa, M. Ishida, T. Nakajima, 
 Y. Honda, O. Kitao, H. Nakai, T. Vreven, J. A. Montgomery, Jr., 
 J. E. Peralta, F. Ogliaro, M. Bearpark, J. J. Heyd, E. Brothers, 
 K. N. Kudin, V. N. Staroverov, T. Keith, R. Kobayashi, J. Normand, 
 K. Raghavachari, A. Rendell, J. C. Burant, S. S. Iyengar, J. Tomasi, 
 M. Cossi, N. Rega, J. M. Millam, M. Klene, J. E. Knox, J. B. Cross, 
 V. Bakken, C. Adamo, J. Jaramillo, R. Gomperts, R. E. Stratmann, 
 O. Yazyev, A. J. Austin, R. Cammi, C. Pomelli, J. W. Ochterski, 
 R. L. Martin, K. Morokuma, V. G. Zakrzewski, G. A. Voth, 
 P. Salvador, J. J. Dannenberg, S. Dapprich, A. D. Daniels, 
 O. Farkas, J. B. Foresman, J. V. Ortiz, J. Cioslowski, 
 and D. J. Fox, Gaussian, Inc., Wallingford CT, 2013.
 
 ******************************************
 Gaussian 09:  ES64L-G09RevE.01 30-Nov-2015
                17-Nov-2021 
 ******************************************
 %nprocs=14
 Will use up to   14 processors via shared memory.
 %mem=128GB
 %chk=XantPhos_1.chk
 ----------------------------------------------------------------------
 # PBEPBE gen 6D pseudo=read scf=maxcycles=500 denfit int=(grid=ultrafi
 ne) empiricaldispersion=GD3BJ opt freq=noraman
 ----------------------------------------------------------------------
 1/14=-1,18=20,19=15,26=4,38=1/1,3;
 2/9=110,12=2,17=6,18=5,40=1/2;
 3/5=7,8=2,11=2,16=1,17=8,25=1,30=1,71=1,74=1009,75=-5,82=47,124=41/1,2,3;
 4//1;
 5/5=2,7=500,38=5/2;
 6/7=2,8=2,9=2,10=2,28=1/1;
 7//1,2,3,16;
 1/14=-1,18=20,19=15,26=4/3(2);
 2/9=110/2;
 99//99;
 2/9=110/2;
 3/5=7,6=1,8=2,11=2,16=1,17=8,25=1,30=1,71=1,74=1009,75=-5,82=7,124=41/1,2,3;
 4/5=5,16=3,69=1/1;
 5/5=2,7=500,38=5/2;
 7//1,2,3,16;
 1/14=-1,18=20,19=15,26=4/3(-5);
 2/9=110/2;
 6/7=2,8=2,9=2,10=2,19=2,28=1/1;
 99/9=1/99;
 --------
 XantPhos
 --------
 Symbolic Z-matrix:
 Charge =  0 Multiplicity = 1
 P                    -1.5951    1.8219   -3.423 
 C                    -1.9689    2.7142   -1.8146 
 C                    -3.1603    3.3821   -1.4652 
 C                    -3.341     3.8542   -0.148 
 C                    -2.3609    3.6173    0.8398 
 C                    -1.1595    2.9523    0.5003 
 C                    -0.9559    2.6059   -0.8512 
 O                     0.2357    2.0751   -1.2407 
 C                    -0.0822    2.5273    1.5221 
 C                    -0.7194    2.2384    2.9032 
 C                     0.9364    3.6688    1.6781 
 C                    -2.2244    0.0859   -3.0581 
 C                    -2.3169   -0.4145   -1.739 
 C                    -2.8418   -1.6964   -1.4864 
 C                    -3.2846   -2.4989   -2.5532 
 C                    -3.1905   -2.0189   -3.872 
 C                    -2.6595   -0.7385   -4.1195 
 C                    -2.8752    2.3077   -4.7182 
 C                    -4.2544    2.1935   -4.4329 
 C                    -4.8293    2.9625   -6.6724 
 C                    -5.2265    2.525    -5.3962 
 C                    -3.4603    3.0502   -6.9835 
 C                    -2.4937    2.7148   -6.0154 
 H                    -3.9455    3.5293   -2.1889 
 H                    -2.5564    3.9445    1.8487 
 H                    -4.2567    4.3636    0.1162 
 H                    -1.4489    1.4302    2.8394 
 H                    -1.223     3.1113    3.3151 
 H                     1.4097    3.9078    0.7249 
 H                     0.4605    4.5791    2.0436 
 H                    -4.5731    1.8267   -3.4679 
 H                    -5.572     3.217    -7.4147 
 H                    -3.1496    3.3699   -7.9678 
 H                    -1.4524    2.764    -6.2896 
 H                    -1.9956    0.1803   -0.8986 
 H                    -2.9062   -2.0616   -0.4718 
 H                    -3.6868   -3.483    -2.3623 
 H                    -3.5193   -2.6344   -4.6963 
 H                    -2.5997   -0.3845   -5.1384 
 P                     1.466    -0.0252   -2.9078 
 C                     1.3571    0.0057   -1.0269 
 C                     1.9201   -0.9797   -0.1905 
 C                     1.8513   -0.8461    1.2115 
 C                     1.2205    0.2728    1.7955 
 C                     0.6463    1.2737    0.9767 
 C                     0.7469    1.1181   -0.4249 
 C                     0.7181   -1.5995   -3.5907 
 C                     0.3475   -2.6818   -2.7643 
 C                    -0.1636   -3.8693   -3.3234 
 C                    -0.3177   -3.9831   -4.7176 
 C                     0.0378   -2.906    -5.5504 
 C                     0.552    -1.722    -4.9873 
 C                     3.3122   -0.3839   -3.011 
 C                     3.8327   -1.4437   -3.7884 
 C                     6.1058   -0.875    -3.1099 
 C                     5.2189   -1.6886   -3.8383 
 C                     5.6024    0.1829   -2.3314 
 C                     4.2158    0.4232   -2.2841 
 H                     2.427    -1.8286   -0.6272 
 H                     1.1937    0.3419    2.8712 
 H                     2.2938   -1.6034    1.8427 
 H                     0.0237    1.9616    3.6494 
 H                     1.7282    3.402     2.3785 
 H                     3.1765   -2.0858   -4.3553 
 H                     3.8415    1.2406   -1.6846 
 H                     0.4462   -2.6097   -1.6929 
 H                    -0.4454   -4.6894   -2.6795 
 H                    -0.713    -4.8926   -5.146 
 H                    -0.08     -2.9895   -6.6211 
 H                     0.8379   -0.9074   -5.6365 
 H                     6.2786    0.8129   -1.7721 
 H                     7.1694   -1.0606   -3.1497 
 H                     5.6011   -2.5021   -4.4377 
 H                    -6.2764    2.4348   -5.1575 
 Pd                    0.7544    2.0332   -3.9759 
 Cl                    2.9543    2.3965   -4.6654 
 Cl                    0.2818    4.1312   -4.8886 
 

 GradGradGradGradGradGradGradGradGradGradGradGradGradGradGradGradGradGrad
 Berny optimization.
 Initialization pass.
                           ----------------------------
                           !    Initial Parameters    !
                           ! (Angstroms and Degrees)  !
 --------------------------                            --------------------------
 ! Name  Definition              Value          Derivative Info.                !
 --------------------------------------------------------------------------------
 ! R1    R(1,2)                  1.8769         estimate D2E/DX2                !
 ! R2    R(1,12)                 1.8823         estimate D2E/DX2                !
 ! R3    R(1,18)                 1.8847         estimate D2E/DX2                !
 ! R4    R(1,75)                 2.4229         estimate D2E/DX2                !
 ! R5    R(2,3)                  1.4098         estimate D2E/DX2                !
 ! R6    R(2,7)                  1.4022         estimate D2E/DX2                !
 ! R7    R(3,4)                  1.4109         estimate D2E/DX2                !
 ! R8    R(3,24)                 1.0779         estimate D2E/DX2                !
 ! R9    R(4,5)                  1.4115         estimate D2E/DX2                !
 ! R10   R(4,26)                 1.0806         estimate D2E/DX2                !
 ! R11   R(5,6)                  1.4145         estimate D2E/DX2                !
 ! R12   R(5,25)                 1.0785         estimate D2E/DX2                !
 ! R13   R(6,7)                  1.41           estimate D2E/DX2                !
 ! R14   R(6,9)                  1.5444         estimate D2E/DX2                !
 ! R15   R(7,8)                  1.3614         estimate D2E/DX2                !
 ! R16   R(8,46)                 1.3575         estimate D2E/DX2                !
 ! R17   R(9,10)                 1.5482         estimate D2E/DX2                !
 ! R18   R(9,11)                 1.5378         estimate D2E/DX2                !
 ! R19   R(9,45)                 1.5491         estimate D2E/DX2                !
 ! R20   R(10,27)                1.0906         estimate D2E/DX2                !
 ! R21   R(10,28)                1.0887         estimate D2E/DX2                !
 ! R22   R(10,62)                1.0889         estimate D2E/DX2                !
 ! R23   R(11,29)                1.0907         estimate D2E/DX2                !
 ! R24   R(11,30)                1.0903         estimate D2E/DX2                !
 ! R25   R(11,63)                1.0903         estimate D2E/DX2                !
 ! R26   R(12,13)                1.4139         estimate D2E/DX2                !
 ! R27   R(12,17)                1.4126         estimate D2E/DX2                !
 ! R28   R(13,14)                1.408          estimate D2E/DX2                !
 ! R29   R(13,35)                1.0786         estimate D2E/DX2                !
 ! R30   R(14,15)                1.4065         estimate D2E/DX2                !
 ! R31   R(14,36)                1.0802         estimate D2E/DX2                !
 ! R32   R(15,16)                1.4066         estimate D2E/DX2                !
 ! R33   R(15,37)                1.0801         estimate D2E/DX2                !
 ! R34   R(16,17)                1.4081         estimate D2E/DX2                !
 ! R35   R(16,38)                1.08           estimate D2E/DX2                !
 ! R36   R(17,39)                1.0803         estimate D2E/DX2                !
 ! R37   R(18,19)                1.413          estimate D2E/DX2                !
 ! R38   R(18,23)                1.4121         estimate D2E/DX2                !
 ! R39   R(19,21)                1.4081         estimate D2E/DX2                !
 ! R40   R(19,31)                1.0804         estimate D2E/DX2                !
 ! R41   R(20,21)                1.4064         estimate D2E/DX2                !
 ! R42   R(20,22)                1.4066         estimate D2E/DX2                !
 ! R43   R(20,32)                1.0805         estimate D2E/DX2                !
 ! R44   R(21,74)                1.0805         estimate D2E/DX2                !
 ! R45   R(22,23)                1.4086         estimate D2E/DX2                !
 ! R46   R(22,33)                1.0806         estimate D2E/DX2                !
 ! R47   R(23,34)                1.0779         estimate D2E/DX2                !
 ! R48   R(40,41)                1.8843         estimate D2E/DX2                !
 ! R49   R(40,47)                1.8719         estimate D2E/DX2                !
 ! R50   R(40,53)                1.8836         estimate D2E/DX2                !
 ! R51   R(40,75)                2.4257         estimate D2E/DX2                !
 ! R52   R(41,42)                1.4098         estimate D2E/DX2                !
 ! R53   R(41,46)                1.4043         estimate D2E/DX2                !
 ! R54   R(42,43)                1.41           estimate D2E/DX2                !
 ! R55   R(42,59)                1.0809         estimate D2E/DX2                !
 ! R56   R(43,44)                1.411          estimate D2E/DX2                !
 ! R57   R(43,61)                1.0806         estimate D2E/DX2                !
 ! R58   R(44,45)                1.4149         estimate D2E/DX2                !
 ! R59   R(44,60)                1.0783         estimate D2E/DX2                !
 ! R60   R(45,46)                1.4138         estimate D2E/DX2                !
 ! R61   R(47,48)                1.4113         estimate D2E/DX2                !
 ! R62   R(47,52)                1.4118         estimate D2E/DX2                !
 ! R63   R(48,49)                1.4085         estimate D2E/DX2                !
 ! R64   R(48,66)                1.0783         estimate D2E/DX2                !
 ! R65   R(49,50)                1.4073         estimate D2E/DX2                !
 ! R66   R(49,67)                1.0801         estimate D2E/DX2                !
 ! R67   R(50,51)                1.4072         estimate D2E/DX2                !
 ! R68   R(50,68)                1.0803         estimate D2E/DX2                !
 ! R69   R(51,52)                1.4083         estimate D2E/DX2                !
 ! R70   R(51,69)                1.0804         estimate D2E/DX2                !
 ! R71   R(52,70)                1.0802         estimate D2E/DX2                !
 ! R72   R(53,54)                1.4137         estimate D2E/DX2                !
 ! R73   R(53,58)                1.4129         estimate D2E/DX2                !
 ! R74   R(54,56)                1.4086         estimate D2E/DX2                !
 ! R75   R(54,64)                1.079          estimate D2E/DX2                !
 ! R76   R(55,56)                1.4068         estimate D2E/DX2                !
 ! R77   R(55,57)                1.4066         estimate D2E/DX2                !
 ! R78   R(55,72)                1.0804         estimate D2E/DX2                !
 ! R79   R(56,73)                1.0803         estimate D2E/DX2                !
 ! R80   R(57,58)                1.4081         estimate D2E/DX2                !
 ! R81   R(57,71)                1.0803         estimate D2E/DX2                !
 ! R82   R(58,65)                1.0806         estimate D2E/DX2                !
 ! R83   R(75,76)                2.3339         estimate D2E/DX2                !
 ! R84   R(75,77)                2.3362         estimate D2E/DX2                !
 ! A1    A(2,1,12)             101.8736         estimate D2E/DX2                !
 ! A2    A(2,1,18)             109.3347         estimate D2E/DX2                !
 ! A3    A(2,1,75)             110.3167         estimate D2E/DX2                !
 ! A4    A(12,1,18)             98.2721         estimate D2E/DX2                !
 ! A5    A(12,1,75)            116.6716         estimate D2E/DX2                !
 ! A6    A(18,1,75)            118.641          estimate D2E/DX2                !
 ! A7    A(1,2,3)              127.2933         estimate D2E/DX2                !
 ! A8    A(1,2,7)              114.0908         estimate D2E/DX2                !
 ! A9    A(3,2,7)              118.4791         estimate D2E/DX2                !
 ! A10   A(2,3,4)              119.8768         estimate D2E/DX2                !
 ! A11   A(2,3,24)             120.9225         estimate D2E/DX2                !
 ! A12   A(4,3,24)             119.1969         estimate D2E/DX2                !
 ! A13   A(3,4,5)              120.5474         estimate D2E/DX2                !
 ! A14   A(3,4,26)             119.6377         estimate D2E/DX2                !
 ! A15   A(5,4,26)             119.7611         estimate D2E/DX2                !
 ! A16   A(4,5,6)              120.0446         estimate D2E/DX2                !
 ! A17   A(4,5,25)             118.5456         estimate D2E/DX2                !
 ! A18   A(6,5,25)             121.4069         estimate D2E/DX2                !
 ! A19   A(5,6,7)              117.9179         estimate D2E/DX2                !
 ! A20   A(5,6,9)              124.2651         estimate D2E/DX2                !
 ! A21   A(7,6,9)              117.7644         estimate D2E/DX2                !
 ! A22   A(2,7,6)              122.364          estimate D2E/DX2                !
 ! A23   A(2,7,8)              117.7681         estimate D2E/DX2                !
 ! A24   A(6,7,8)              119.7637         estimate D2E/DX2                !
 ! A25   A(7,8,46)             115.6296         estimate D2E/DX2                !
 ! A26   A(6,9,10)             110.76           estimate D2E/DX2                !
 ! A27   A(6,9,11)             108.958          estimate D2E/DX2                !
 ! A28   A(6,9,45)             108.5293         estimate D2E/DX2                !
 ! A29   A(10,9,11)            108.7011         estimate D2E/DX2                !
 ! A30   A(10,9,45)            110.8929         estimate D2E/DX2                !
 ! A31   A(11,9,45)            108.9603         estimate D2E/DX2                !
 ! A32   A(9,10,27)            111.186          estimate D2E/DX2                !
 ! A33   A(9,10,28)            112.2271         estimate D2E/DX2                !
 ! A34   A(9,10,62)            112.2031         estimate D2E/DX2                !
 ! A35   A(27,10,28)           107.872          estimate D2E/DX2                !
 ! A36   A(27,10,62)           107.9504         estimate D2E/DX2                !
 ! A37   A(28,10,62)           105.0837         estimate D2E/DX2                !
 ! A38   A(9,11,29)            111.1869         estimate D2E/DX2                !
 ! A39   A(9,11,30)            111.3852         estimate D2E/DX2                !
 ! A40   A(9,11,63)            111.3805         estimate D2E/DX2                !
 ! A41   A(29,11,30)           107.4228         estimate D2E/DX2                !
 ! A42   A(29,11,63)           107.4508         estimate D2E/DX2                !
 ! A43   A(30,11,63)           107.8156         estimate D2E/DX2                !
 ! A44   A(1,12,13)            121.9495         estimate D2E/DX2                !
 ! A45   A(1,12,17)            119.7069         estimate D2E/DX2                !
 ! A46   A(13,12,17)           118.3145         estimate D2E/DX2                !
 ! A47   A(12,13,14)           120.9294         estimate D2E/DX2                !
 ! A48   A(12,13,35)           120.8169         estimate D2E/DX2                !
 ! A49   A(14,13,35)           118.2511         estimate D2E/DX2                !
 ! A50   A(13,14,15)           120.0499         estimate D2E/DX2                !
 ! A51   A(13,14,36)           119.901          estimate D2E/DX2                !
 ! A52   A(15,14,36)           120.0489         estimate D2E/DX2                !
 ! A53   A(14,15,16)           119.6952         estimate D2E/DX2                !
 ! A54   A(14,15,37)           120.2008         estimate D2E/DX2                !
 ! A55   A(16,15,37)           120.1016         estimate D2E/DX2                !
 ! A56   A(15,16,17)           120.0227         estimate D2E/DX2                !
 ! A57   A(15,16,38)           120.0498         estimate D2E/DX2                !
 ! A58   A(17,16,38)           119.9262         estimate D2E/DX2                !
 ! A59   A(12,17,16)           120.9818         estimate D2E/DX2                !
 ! A60   A(12,17,39)           120.0248         estimate D2E/DX2                !
 ! A61   A(16,17,39)           118.9885         estimate D2E/DX2                !
 ! A62   A(1,18,19)            120.2222         estimate D2E/DX2                !
 ! A63   A(1,18,23)            121.4738         estimate D2E/DX2                !
 ! A64   A(19,18,23)           118.1954         estimate D2E/DX2                !
 ! A65   A(18,19,21)           121.1094         estimate D2E/DX2                !
 ! A66   A(18,19,31)           119.7151         estimate D2E/DX2                !
 ! A67   A(21,19,31)           119.1632         estimate D2E/DX2                !
 ! A68   A(21,20,22)           119.6674         estimate D2E/DX2                !
 ! A69   A(21,20,32)           120.1704         estimate D2E/DX2                !
 ! A70   A(22,20,32)           120.1569         estimate D2E/DX2                !
 ! A71   A(19,21,20)           119.9368         estimate D2E/DX2                !
 ! A72   A(19,21,74)           120.0023         estimate D2E/DX2                !
 ! A73   A(20,21,74)           120.0587         estimate D2E/DX2                !
 ! A74   A(20,22,23)           120.0675         estimate D2E/DX2                !
 ! A75   A(20,22,33)           119.9839         estimate D2E/DX2                !
 ! A76   A(23,22,33)           119.9478         estimate D2E/DX2                !
 ! A77   A(18,23,22)           120.9727         estimate D2E/DX2                !
 ! A78   A(18,23,34)           120.5193         estimate D2E/DX2                !
 ! A79   A(22,23,34)           118.5039         estimate D2E/DX2                !
 ! A80   A(41,40,47)           110.7844         estimate D2E/DX2                !
 ! A81   A(41,40,53)            96.5725         estimate D2E/DX2                !
 ! A82   A(41,40,75)           114.1203         estimate D2E/DX2                !
 ! A83   A(47,40,53)           102.2081         estimate D2E/DX2                !
 ! A84   A(47,40,75)           115.8367         estimate D2E/DX2                !
 ! A85   A(53,40,75)           115.1513         estimate D2E/DX2                !
 ! A86   A(40,41,42)           123.8942         estimate D2E/DX2                !
 ! A87   A(40,41,46)           117.7748         estimate D2E/DX2                !
 ! A88   A(42,41,46)           118.22           estimate D2E/DX2                !
 ! A89   A(41,42,43)           120.2771         estimate D2E/DX2                !
 ! A90   A(41,42,59)           119.7713         estimate D2E/DX2                !
 ! A91   A(43,42,59)           119.9353         estimate D2E/DX2                !
 ! A92   A(42,43,44)           120.5629         estimate D2E/DX2                !
 ! A93   A(42,43,61)           119.6305         estimate D2E/DX2                !
 ! A94   A(44,43,61)           119.8042         estimate D2E/DX2                !
 ! A95   A(43,44,45)           120.19           estimate D2E/DX2                !
 ! A96   A(43,44,60)           118.3492         estimate D2E/DX2                !
 ! A97   A(45,44,60)           121.4604         estimate D2E/DX2                !
 ! A98   A(9,45,44)            124.0257         estimate D2E/DX2                !
 ! A99   A(9,45,46)            118.1361         estimate D2E/DX2                !
 ! A100  A(44,45,46)           117.8381         estimate D2E/DX2                !
 ! A101  A(8,46,41)            117.6742         estimate D2E/DX2                !
 ! A102  A(8,46,45)            119.4329         estimate D2E/DX2                !
 ! A103  A(41,46,45)           122.8928         estimate D2E/DX2                !
 ! A104  A(40,47,48)           122.4296         estimate D2E/DX2                !
 ! A105  A(40,47,52)           118.7424         estimate D2E/DX2                !
 ! A106  A(48,47,52)           118.8059         estimate D2E/DX2                !
 ! A107  A(47,48,49)           120.6244         estimate D2E/DX2                !
 ! A108  A(47,48,66)           120.4303         estimate D2E/DX2                !
 ! A109  A(49,48,66)           118.9444         estimate D2E/DX2                !
 ! A110  A(48,49,50)           120.0761         estimate D2E/DX2                !
 ! A111  A(48,49,67)           119.8793         estimate D2E/DX2                !
 ! A112  A(50,49,67)           120.0423         estimate D2E/DX2                !
 ! A113  A(49,50,51)           119.7861         estimate D2E/DX2                !
 ! A114  A(49,50,68)           120.068          estimate D2E/DX2                !
 ! A115  A(51,50,68)           120.145          estimate D2E/DX2                !
 ! A116  A(50,51,52)           119.9426         estimate D2E/DX2                !
 ! A117  A(50,51,69)           119.988          estimate D2E/DX2                !
 ! A118  A(52,51,69)           120.0689         estimate D2E/DX2                !
 ! A119  A(47,52,51)           120.7606         estimate D2E/DX2                !
 ! A120  A(47,52,70)           119.8665         estimate D2E/DX2                !
 ! A121  A(51,52,70)           119.3637         estimate D2E/DX2                !
 ! A122  A(40,53,54)           122.2618         estimate D2E/DX2                !
 ! A123  A(40,53,58)           119.3327         estimate D2E/DX2                !
 ! A124  A(54,53,58)           118.4045         estimate D2E/DX2                !
 ! A125  A(53,54,56)           120.8089         estimate D2E/DX2                !
 ! A126  A(53,54,64)           120.739          estimate D2E/DX2                !
 ! A127  A(56,54,64)           118.4519         estimate D2E/DX2                !
 ! A128  A(56,55,57)           119.7285         estimate D2E/DX2                !
 ! A129  A(56,55,72)           120.146          estimate D2E/DX2                !
 ! A130  A(57,55,72)           120.1254         estimate D2E/DX2                !
 ! A131  A(54,56,55)           120.1017         estimate D2E/DX2                !
 ! A132  A(54,56,73)           119.9167         estimate D2E/DX2                !
 ! A133  A(55,56,73)           119.9816         estimate D2E/DX2                !
 ! A134  A(55,57,58)           119.9577         estimate D2E/DX2                !
 ! A135  A(55,57,71)           120.0752         estimate D2E/DX2                !
 ! A136  A(58,57,71)           119.9668         estimate D2E/DX2                !
 ! A137  A(53,58,57)           120.9986         estimate D2E/DX2                !
 ! A138  A(53,58,65)           119.7364         estimate D2E/DX2                !
 ! A139  A(57,58,65)           119.2645         estimate D2E/DX2                !
 ! A140  A(1,75,40)             96.3144         estimate D2E/DX2                !
 ! A141  A(1,75,77)             88.3556         estimate D2E/DX2                !
 ! A142  A(40,75,76)            89.1784         estimate D2E/DX2                !
 ! A143  A(76,75,77)            86.3002         estimate D2E/DX2                !
 ! A144  L(1,75,76,77,-1)      174.6558         estimate D2E/DX2                !
 ! A145  L(40,75,77,76,-1)     175.4787         estimate D2E/DX2                !
 ! A146  L(1,75,76,77,-2)      182.0265         estimate D2E/DX2                !
 ! A147  L(40,75,77,76,-2)     184.7934         estimate D2E/DX2                !
 ! D1    D(12,1,2,3)           -88.6524         estimate D2E/DX2                !
 ! D2    D(12,1,2,7)            86.992          estimate D2E/DX2                !
 ! D3    D(18,1,2,3)            14.6199         estimate D2E/DX2                !
 ! D4    D(18,1,2,7)          -169.7357         estimate D2E/DX2                !
 ! D5    D(75,1,2,3)           146.8088         estimate D2E/DX2                !
 ! D6    D(75,1,2,7)           -37.5468         estimate D2E/DX2                !
 ! D7    D(2,1,12,13)          -24.9037         estimate D2E/DX2                !
 ! D8    D(2,1,12,17)          153.0982         estimate D2E/DX2                !
 ! D9    D(18,1,12,13)        -136.7705         estimate D2E/DX2                !
 ! D10   D(18,1,12,17)          41.2315         estimate D2E/DX2                !
 ! D11   D(75,1,12,13)          95.2727         estimate D2E/DX2                !
 ! D12   D(75,1,12,17)         -86.7254         estimate D2E/DX2                !
 ! D13   D(2,1,18,19)          -52.563          estimate D2E/DX2                !
 ! D14   D(2,1,18,23)          131.2943         estimate D2E/DX2                !
 ! D15   D(12,1,18,19)          53.182          estimate D2E/DX2                !
 ! D16   D(12,1,18,23)        -122.9608         estimate D2E/DX2                !
 ! D17   D(75,1,18,19)         179.783          estimate D2E/DX2                !
 ! D18   D(75,1,18,23)           3.6402         estimate D2E/DX2                !
 ! D19   D(2,1,75,40)           92.8487         estimate D2E/DX2                !
 ! D20   D(2,1,75,77)          -82.4929         estimate D2E/DX2                !
 ! D21   D(12,1,75,40)         -22.7148         estimate D2E/DX2                !
 ! D22   D(12,1,75,77)         161.9436         estimate D2E/DX2                !
 ! D23   D(18,1,75,40)        -139.96           estimate D2E/DX2                !
 ! D24   D(18,1,75,77)          44.6985         estimate D2E/DX2                !
 ! D25   D(1,2,3,4)            171.8246         estimate D2E/DX2                !
 ! D26   D(1,2,3,24)            -7.4624         estimate D2E/DX2                !
 ! D27   D(7,2,3,4)             -3.6515         estimate D2E/DX2                !
 ! D28   D(7,2,3,24)           177.0616         estimate D2E/DX2                !
 ! D29   D(1,2,7,6)           -166.0814         estimate D2E/DX2                !
 ! D30   D(1,2,7,8)             10.1945         estimate D2E/DX2                !
 ! D31   D(3,2,7,6)              9.9772         estimate D2E/DX2                !
 ! D32   D(3,2,7,8)           -173.7469         estimate D2E/DX2                !
 ! D33   D(2,3,4,5)             -2.5317         estimate D2E/DX2                !
 ! D34   D(2,3,4,26)          -179.8579         estimate D2E/DX2                !
 ! D35   D(24,3,4,5)           176.7676         estimate D2E/DX2                !
 ! D36   D(24,3,4,26)           -0.5586         estimate D2E/DX2                !
 ! D37   D(3,4,5,6)              2.743          estimate D2E/DX2                !
 ! D38   D(3,4,5,25)          -176.6485         estimate D2E/DX2                !
 ! D39   D(26,4,5,6)          -179.9341         estimate D2E/DX2                !
 ! D40   D(26,4,5,25)            0.6745         estimate D2E/DX2                !
 ! D41   D(4,5,6,7)              3.194          estimate D2E/DX2                !
 ! D42   D(4,5,6,9)           -174.1035         estimate D2E/DX2                !
 ! D43   D(25,5,6,7)          -177.4324         estimate D2E/DX2                !
 ! D44   D(25,5,6,9)             5.2701         estimate D2E/DX2                !
 ! D45   D(5,6,7,2)             -9.7216         estimate D2E/DX2                !
 ! D46   D(5,6,7,8)            174.0745         estimate D2E/DX2                !
 ! D47   D(9,6,7,2)            167.7545         estimate D2E/DX2                !
 ! D48   D(9,6,7,8)             -8.4494         estimate D2E/DX2                !
 ! D49   D(5,6,9,10)            29.0579         estimate D2E/DX2                !
 ! D50   D(5,6,9,11)           -90.4651         estimate D2E/DX2                !
 ! D51   D(5,6,9,45)           151.0151         estimate D2E/DX2                !
 ! D52   D(7,6,9,10)          -148.2434         estimate D2E/DX2                !
 ! D53   D(7,6,9,11)            92.2335         estimate D2E/DX2                !
 ! D54   D(7,6,9,45)           -26.2863         estimate D2E/DX2                !
 ! D55   D(2,7,8,46)          -132.3973         estimate D2E/DX2                !
 ! D56   D(6,7,8,46)            43.9792         estimate D2E/DX2                !
 ! D57   D(7,8,46,41)          139.9163         estimate D2E/DX2                !
 ! D58   D(7,8,46,45)          -40.0159         estimate D2E/DX2                !
 ! D59   D(6,9,10,27)           60.4906         estimate D2E/DX2                !
 ! D60   D(6,9,10,28)          -60.4364         estimate D2E/DX2                !
 ! D61   D(6,9,10,62)         -178.4982         estimate D2E/DX2                !
 ! D62   D(11,9,10,27)        -179.8321         estimate D2E/DX2                !
 ! D63   D(11,9,10,28)          59.2408         estimate D2E/DX2                !
 ! D64   D(11,9,10,62)         -58.821          estimate D2E/DX2                !
 ! D65   D(45,9,10,27)         -60.0715         estimate D2E/DX2                !
 ! D66   D(45,9,10,28)         179.0015         estimate D2E/DX2                !
 ! D67   D(45,9,10,62)          60.9397         estimate D2E/DX2                !
 ! D68   D(6,9,11,29)          -59.0735         estimate D2E/DX2                !
 ! D69   D(6,9,11,30)           60.7056         estimate D2E/DX2                !
 ! D70   D(6,9,11,63)         -178.8851         estimate D2E/DX2                !
 ! D71   D(10,9,11,29)        -179.8676         estimate D2E/DX2                !
 ! D72   D(10,9,11,30)         -60.0884         estimate D2E/DX2                !
 ! D73   D(10,9,11,63)          60.3209         estimate D2E/DX2                !
 ! D74   D(45,9,11,29)          59.1756         estimate D2E/DX2                !
 ! D75   D(45,9,11,30)         178.9548         estimate D2E/DX2                !
 ! D76   D(45,9,11,63)         -60.6359         estimate D2E/DX2                !
 ! D77   D(6,9,45,44)         -150.3285         estimate D2E/DX2                !
 ! D78   D(6,9,45,46)           29.7611         estimate D2E/DX2                !
 ! D79   D(10,9,45,44)         -28.4525         estimate D2E/DX2                !
 ! D80   D(10,9,45,46)         151.6372         estimate D2E/DX2                !
 ! D81   D(11,9,45,44)          91.1531         estimate D2E/DX2                !
 ! D82   D(11,9,45,46)         -88.7572         estimate D2E/DX2                !
 ! D83   D(1,12,13,14)         177.3881         estimate D2E/DX2                !
 ! D84   D(1,12,13,35)          -2.0201         estimate D2E/DX2                !
 ! D85   D(17,12,13,14)         -0.6406         estimate D2E/DX2                !
 ! D86   D(17,12,13,35)        179.9512         estimate D2E/DX2                !
 ! D87   D(1,12,17,16)        -177.159          estimate D2E/DX2                !
 ! D88   D(1,12,17,39)           2.0304         estimate D2E/DX2                !
 ! D89   D(13,12,17,16)          0.9152         estimate D2E/DX2                !
 ! D90   D(13,12,17,39)       -179.8954         estimate D2E/DX2                !
 ! D91   D(12,13,14,15)         -0.06           estimate D2E/DX2                !
 ! D92   D(12,13,14,36)       -179.9063         estimate D2E/DX2                !
 ! D93   D(35,13,14,15)        179.363          estimate D2E/DX2                !
 ! D94   D(35,13,14,36)         -0.4832         estimate D2E/DX2                !
 ! D95   D(13,14,15,16)          0.502          estimate D2E/DX2                !
 ! D96   D(13,14,15,37)        179.9415         estimate D2E/DX2                !
 ! D97   D(36,14,15,16)       -179.6519         estimate D2E/DX2                !
 ! D98   D(36,14,15,37)         -0.2125         estimate D2E/DX2                !
 ! D99   D(14,15,16,17)         -0.2309         estimate D2E/DX2                !
 ! D100  D(14,15,16,38)        179.3644         estimate D2E/DX2                !
 ! D101  D(37,15,16,17)       -179.6709         estimate D2E/DX2                !
 ! D102  D(37,15,16,38)         -0.0756         estimate D2E/DX2                !
 ! D103  D(15,16,17,12)         -0.4895         estimate D2E/DX2                !
 ! D104  D(15,16,17,39)       -179.6872         estimate D2E/DX2                !
 ! D105  D(38,16,17,12)        179.9147         estimate D2E/DX2                !
 ! D106  D(38,16,17,39)          0.717          estimate D2E/DX2                !
 ! D107  D(1,18,19,21)        -178.6791         estimate D2E/DX2                !
 ! D108  D(1,18,19,31)           0.0375         estimate D2E/DX2                !
 ! D109  D(23,18,19,21)         -2.4116         estimate D2E/DX2                !
 ! D110  D(23,18,19,31)        176.3051         estimate D2E/DX2                !
 ! D111  D(1,18,23,22)         178.7309         estimate D2E/DX2                !
 ! D112  D(1,18,23,34)          -0.5288         estimate D2E/DX2                !
 ! D113  D(19,18,23,22)          2.5124         estimate D2E/DX2                !
 ! D114  D(19,18,23,34)       -176.7472         estimate D2E/DX2                !
 ! D115  D(18,19,21,20)          0.792          estimate D2E/DX2                !
 ! D116  D(18,19,21,74)       -179.7491         estimate D2E/DX2                !
 ! D117  D(31,19,21,20)       -177.9315         estimate D2E/DX2                !
 ! D118  D(31,19,21,74)          1.5274         estimate D2E/DX2                !
 ! D119  D(22,20,21,19)          0.7841         estimate D2E/DX2                !
 ! D120  D(22,20,21,74)       -178.6745         estimate D2E/DX2                !
 ! D121  D(32,20,21,19)        179.9454         estimate D2E/DX2                !
 ! D122  D(32,20,21,74)          0.4868         estimate D2E/DX2                !
 ! D123  D(21,20,22,23)         -0.6821         estimate D2E/DX2                !
 ! D124  D(21,20,22,33)        178.9784         estimate D2E/DX2                !
 ! D125  D(32,20,22,23)       -179.8436         estimate D2E/DX2                !
 ! D126  D(32,20,22,33)         -0.1831         estimate D2E/DX2                !
 ! D127  D(20,22,23,18)         -0.9995         estimate D2E/DX2                !
 ! D128  D(20,22,23,34)        178.2747         estimate D2E/DX2                !
 ! D129  D(33,22,23,18)        179.3399         estimate D2E/DX2                !
 ! D130  D(33,22,23,34)         -1.3859         estimate D2E/DX2                !
 ! D131  D(47,40,41,42)         58.1315         estimate D2E/DX2                !
 ! D132  D(47,40,41,46)       -125.7753         estimate D2E/DX2                !
 ! D133  D(53,40,41,42)        -47.6167         estimate D2E/DX2                !
 ! D134  D(53,40,41,46)        128.4764         estimate D2E/DX2                !
 ! D135  D(75,40,41,42)       -168.9716         estimate D2E/DX2                !
 ! D136  D(75,40,41,46)          7.1215         estimate D2E/DX2                !
 ! D137  D(41,40,47,48)         -9.8827         estimate D2E/DX2                !
 ! D138  D(41,40,47,52)        171.8511         estimate D2E/DX2                !
 ! D139  D(53,40,47,48)         92.0862         estimate D2E/DX2                !
 ! D140  D(53,40,47,52)        -86.18           estimate D2E/DX2                !
 ! D141  D(75,40,47,48)       -141.9057         estimate D2E/DX2                !
 ! D142  D(75,40,47,52)         39.8281         estimate D2E/DX2                !
 ! D143  D(41,40,53,54)        128.365          estimate D2E/DX2                !
 ! D144  D(41,40,53,58)        -51.2554         estimate D2E/DX2                !
 ! D145  D(47,40,53,54)         15.3861         estimate D2E/DX2                !
 ! D146  D(47,40,53,58)       -164.2344         estimate D2E/DX2                !
 ! D147  D(75,40,53,54)       -111.0681         estimate D2E/DX2                !
 ! D148  D(75,40,53,58)         69.3114         estimate D2E/DX2                !
 ! D149  D(41,40,75,1)         -68.8479         estimate D2E/DX2                !
 ! D150  D(41,40,75,76)        112.7344         estimate D2E/DX2                !
 ! D151  D(47,40,75,1)          61.6021         estimate D2E/DX2                !
 ! D152  D(47,40,75,76)       -116.8157         estimate D2E/DX2                !
 ! D153  D(53,40,75,1)        -179.2604         estimate D2E/DX2                !
 ! D154  D(53,40,75,76)          2.3219         estimate D2E/DX2                !
 ! D155  D(40,41,42,43)        176.7889         estimate D2E/DX2                !
 ! D156  D(40,41,42,59)         -1.7427         estimate D2E/DX2                !
 ! D157  D(46,41,42,43)          0.7119         estimate D2E/DX2                !
 ! D158  D(46,41,42,59)       -177.8197         estimate D2E/DX2                !
 ! D159  D(40,41,46,8)           2.1968         estimate D2E/DX2                !
 ! D160  D(40,41,46,45)       -177.8736         estimate D2E/DX2                !
 ! D161  D(42,41,46,8)         178.5167         estimate D2E/DX2                !
 ! D162  D(42,41,46,45)         -1.5537         estimate D2E/DX2                !
 ! D163  D(41,42,43,44)         -0.0349         estimate D2E/DX2                !
 ! D164  D(41,42,43,61)       -179.4757         estimate D2E/DX2                !
 ! D165  D(59,42,43,44)        178.4943         estimate D2E/DX2                !
 ! D166  D(59,42,43,61)         -0.9465         estimate D2E/DX2                !
 ! D167  D(42,43,44,45)          0.137          estimate D2E/DX2                !
 ! D168  D(42,43,44,60)       -179.6286         estimate D2E/DX2                !
 ! D169  D(61,43,44,45)        179.5769         estimate D2E/DX2                !
 ! D170  D(61,43,44,60)         -0.1888         estimate D2E/DX2                !
 ! D171  D(43,44,45,9)         179.1867         estimate D2E/DX2                !
 ! D172  D(43,44,45,46)         -0.9027         estimate D2E/DX2                !
 ! D173  D(60,44,45,9)          -1.0551         estimate D2E/DX2                !
 ! D174  D(60,44,45,46)        178.8555         estimate D2E/DX2                !
 ! D175  D(9,45,46,8)            1.4914         estimate D2E/DX2                !
 ! D176  D(9,45,46,41)        -178.4371         estimate D2E/DX2                !
 ! D177  D(44,45,46,8)        -178.4246         estimate D2E/DX2                !
 ! D178  D(44,45,46,41)          1.6469         estimate D2E/DX2                !
 ! D179  D(40,47,48,49)       -177.4944         estimate D2E/DX2                !
 ! D180  D(40,47,48,66)          2.8644         estimate D2E/DX2                !
 ! D181  D(52,47,48,49)          0.7708         estimate D2E/DX2                !
 ! D182  D(52,47,48,66)       -178.8705         estimate D2E/DX2                !
 ! D183  D(40,47,52,51)        177.7411         estimate D2E/DX2                !
 ! D184  D(40,47,52,70)         -1.1484         estimate D2E/DX2                !
 ! D185  D(48,47,52,51)         -0.5888         estimate D2E/DX2                !
 ! D186  D(48,47,52,70)       -179.4783         estimate D2E/DX2                !
 ! D187  D(47,48,49,50)         -0.4175         estimate D2E/DX2                !
 ! D188  D(47,48,49,67)       -179.8727         estimate D2E/DX2                !
 ! D189  D(66,48,49,50)        179.2291         estimate D2E/DX2                !
 ! D190  D(66,48,49,67)         -0.2261         estimate D2E/DX2                !
 ! D191  D(48,49,50,51)         -0.1314         estimate D2E/DX2                !
 ! D192  D(48,49,50,68)       -179.7818         estimate D2E/DX2                !
 ! D193  D(67,49,50,51)        179.3229         estimate D2E/DX2                !
 ! D194  D(67,49,50,68)         -0.3275         estimate D2E/DX2                !
 ! D195  D(49,50,51,52)          0.3124         estimate D2E/DX2                !
 ! D196  D(49,50,51,69)       -179.9443         estimate D2E/DX2                !
 ! D197  D(68,50,51,52)        179.9625         estimate D2E/DX2                !
 ! D198  D(68,50,51,69)         -0.2943         estimate D2E/DX2                !
 ! D199  D(50,51,52,47)          0.0519         estimate D2E/DX2                !
 ! D200  D(50,51,52,70)        178.947          estimate D2E/DX2                !
 ! D201  D(69,51,52,47)       -179.6911         estimate D2E/DX2                !
 ! D202  D(69,51,52,70)         -0.7961         estimate D2E/DX2                !
 ! D203  D(40,53,54,56)       -179.6828         estimate D2E/DX2                !
 ! D204  D(40,53,54,64)          0.139          estimate D2E/DX2                !
 ! D205  D(58,53,54,56)         -0.0589         estimate D2E/DX2                !
 ! D206  D(58,53,54,64)        179.7629         estimate D2E/DX2                !
 ! D207  D(40,53,58,57)        179.7333         estimate D2E/DX2                !
 ! D208  D(40,53,58,65)         -0.5041         estimate D2E/DX2                !
 ! D209  D(54,53,58,57)          0.0982         estimate D2E/DX2                !
 ! D210  D(54,53,58,65)        179.8608         estimate D2E/DX2                !
 ! D211  D(53,54,56,55)         -0.0094         estimate D2E/DX2                !
 ! D212  D(53,54,56,73)       -179.9571         estimate D2E/DX2                !
 ! D213  D(64,54,56,55)       -179.8352         estimate D2E/DX2                !
 ! D214  D(64,54,56,73)          0.217          estimate D2E/DX2                !
 ! D215  D(57,55,56,54)          0.0401         estimate D2E/DX2                !
 ! D216  D(57,55,56,73)        179.9879         estimate D2E/DX2                !
 ! D217  D(72,55,56,54)       -179.8403         estimate D2E/DX2                !
 ! D218  D(72,55,56,73)          0.1075         estimate D2E/DX2                !
 ! D219  D(56,55,57,58)         -0.0014         estimate D2E/DX2                !
 ! D220  D(56,55,57,71)       -179.8244         estimate D2E/DX2                !
 ! D221  D(72,55,57,58)        179.879          estimate D2E/DX2                !
 ! D222  D(72,55,57,71)          0.056          estimate D2E/DX2                !
 ! D223  D(55,57,58,53)         -0.069          estimate D2E/DX2                !
 ! D224  D(55,57,58,65)       -179.8326         estimate D2E/DX2                !
 ! D225  D(71,57,58,53)        179.7542         estimate D2E/DX2                !
 ! D226  D(71,57,58,65)         -0.0095         estimate D2E/DX2                !
 --------------------------------------------------------------------------------
 Trust Radius=3.00D-01 FncErr=1.00D-07 GrdErr=1.00D-06
 Number of steps in this run=    462 maximum allowed number of steps=    462.
 GradGradGradGradGradGradGradGradGradGradGradGradGradGradGradGradGradGrad

 Stoichiometry    C39H32Cl2OP2Pd
 Framework group  C1[X(C39H32Cl2OP2Pd)]
 Deg. of freedom   225
 Full point group                 C1      NOp   1
 Largest Abelian subgroup         C1      NOp   1
 Largest concise Abelian subgroup C1      NOp   1
                         Standard orientation:                         
 ---------------------------------------------------------------------
 Center     Atomic      Atomic             Coordinates (Angstroms)
 Number     Number       Type             X           Y           Z
 ---------------------------------------------------------------------
      1         15           0       -1.896217   -0.180016   -0.261587
      2          6           0       -2.203401    1.671585   -0.252175
      3          6           0       -3.443434    2.331133   -0.130023
      4          6           0       -3.481351    3.732200    0.031597
      5          6           0       -2.285461    4.476153    0.125661
      6          6           0       -1.035372    3.826269    0.000063
      7          6           0       -1.034877    2.445789   -0.286765
      8          8           0        0.141707    1.807552   -0.535110
      9          6           0        0.329192    4.516855    0.215315
     10          6           0        0.201827    5.679682    1.229483
     11          6           0        0.818943    5.084902   -1.127208
     12          6           0       -1.682907   -0.546525    1.572272
     13          6           0       -1.257507    0.442762    2.488419
     14          6           0       -1.157417    0.160006    3.864147
     15          6           0       -1.483730   -1.120595    4.345521
     16          6           0       -1.899573   -2.118271    3.445407
     17          6           0       -1.992455   -1.831845    2.069916
     18          6           0       -3.529090   -1.082091   -0.530262
     19          6           0       -4.641672   -0.799634    0.293757
     20          6           0       -5.982001   -2.474829   -0.861437
     21          6           0       -5.862114   -1.482038    0.127428
     22          6           0       -4.874053   -2.791265   -1.668256
     23          6           0       -3.655827   -2.105866   -1.494535
     24          1           0       -4.368785    1.778508   -0.146735
     25          1           0       -2.351600    5.537808    0.303631
     26          1           0       -4.433891    4.233528    0.127169
     27          1           0       -0.141357    5.320186    2.200264
     28          1           0       -0.493835    6.446107    0.892028
     29          1           0        0.920952    4.297251   -1.874821
     30          1           0        0.122197    5.823576   -1.524225
     31          1           0       -4.553092   -0.063105    1.079260
     32          1           0       -6.916408   -3.001407   -0.991749
     33          1           0       -4.955644   -3.564662   -2.418449
     34          1           0       -2.814988   -2.387947   -2.107179
     35          1           0       -1.010104    1.437306    2.152315
     36          1           0       -0.832009    0.928852    4.549651
     37          1           0       -1.406926   -1.340437    5.400239
     38          1           0       -2.141671   -3.106544    3.807520
     39          1           0       -2.318529   -2.609055    1.394143
     40         15           0        1.673349   -0.649872    0.029921
     41          6           0        2.005984    1.072543    0.717845
     42          6           0        3.091927    1.386433    1.560311
     43          6           0        3.307135    2.716143    1.977138
     44          6           0        2.441647    3.748534    1.557613
     45          6           0        1.343762    3.457688    0.713814
     46          6           0        1.165585    2.117430    0.300565
     47          6           0        1.471423   -1.891304    1.416355
     48          6           0        1.764307   -1.578445    2.760971
     49          6           0        1.648769   -2.557475    3.767015
     50          6           0        1.229630   -3.860150    3.438610
     51          6           0        0.923892   -4.180204    2.102882
     52          6           0        1.044505   -3.199184    1.099691
     53          6           0        3.430370   -0.990610   -0.557061
     54          6           0        4.129140   -2.167574   -0.203617
     55          6           0        6.082036   -1.432611   -1.467259
     56          6           0        5.445198   -2.388155   -0.654562
     57          6           0        5.399460   -0.256343   -1.826576
     58          6           0        4.084256   -0.040030   -1.372608
     59          1           0        3.775207    0.607463    1.867912
     60          1           0        2.643054    4.753365    1.892834
     61          1           0        4.147705    2.946362    2.616014
     62          1           0        1.146323    6.200396    1.379198
     63          1           0        1.791978    5.565791   -1.024063
     64          1           0        3.667259   -2.916773    0.420589
     65          1           0        3.569397    0.866235   -1.657648
     66          1           0        2.074961   -0.582803    3.034887
     67          1           0        1.873983   -2.304321    4.792575
     68          1           0        1.137677   -4.609954    4.210826
     69          1           0        0.600949   -5.179007    1.847248
     70          1           0        0.823863   -3.459666    0.074879
     71          1           0        5.882101    0.479840   -2.452719
     72          1           0        7.090551   -1.602259   -1.815676
     73          1           0        5.965553   -3.293103   -0.376281
     74          1           0       -6.702711   -1.248902    0.764960
     75         46           0       -0.023234   -0.714726   -1.702599
     76         17           0        1.624733   -1.301447   -3.247565
     77         17           0       -1.486764   -0.634653   -3.521841
 ---------------------------------------------------------------------
 Rotational constants (GHZ):      0.0740864      0.0619788      0.0540783
 General basis read from cards:  (6D, 7F)
 ======================================================================================================
                                       Pseudopotential Parameters
 ======================================================================================================
  Center     Atomic      Valence      Angular      Power
  Number     Number     Electrons     Momentum     of R      Exponent        Coefficient   SO-Coeffient
 ======================================================================================================
    1         15
                                   No pseudopotential on this center.
    2          6
                                   No pseudopotential on this center.
    3          6
                                   No pseudopotential on this center.
    4          6
                                   No pseudopotential on this center.
    5          6
                                   No pseudopotential on this center.
    6          6
                                   No pseudopotential on this center.
    7          6
                                   No pseudopotential on this center.
    8          8
                                   No pseudopotential on this center.
    9          6
                                   No pseudopotential on this center.
   10          6
                                   No pseudopotential on this center.
   11          6
                                   No pseudopotential on this center.
   12          6
                                   No pseudopotential on this center.
   13          6
                                   No pseudopotential on this center.
   14          6
                                   No pseudopotential on this center.
   15          6
                                   No pseudopotential on this center.
   16          6
                                   No pseudopotential on this center.
   17          6
                                   No pseudopotential on this center.
   18          6
                                   No pseudopotential on this center.
   19          6
                                   No pseudopotential on this center.
   20          6
                                   No pseudopotential on this center.
   21          6
                                   No pseudopotential on this center.
   22          6
                                   No pseudopotential on this center.
   23          6
                                   No pseudopotential on this center.
   24          1
                                   No pseudopotential on this center.
   25          1
                                   No pseudopotential on this center.
   26          1
                                   No pseudopotential on this center.
   27          1
                                   No pseudopotential on this center.
   28          1
                                   No pseudopotential on this center.
   29          1
                                   No pseudopotential on this center.
   30          1
                                   No pseudopotential on this center.
   31          1
                                   No pseudopotential on this center.
   32          1
                                   No pseudopotential on this center.
   33          1
                                   No pseudopotential on this center.
   34          1
                                   No pseudopotential on this center.
   35          1
                                   No pseudopotential on this center.
   36          1
                                   No pseudopotential on this center.
   37          1
                                   No pseudopotential on this center.
   38          1
                                   No pseudopotential on this center.
   39          1
                                   No pseudopotential on this center.
   40         15
                                   No pseudopotential on this center.
   41          6
                                   No pseudopotential on this center.
   42          6
                                   No pseudopotential on this center.
   43          6
                                   No pseudopotential on this center.
   44          6
                                   No pseudopotential on this center.
   45          6
                                   No pseudopotential on this center.
   46          6
                                   No pseudopotential on this center.
   47          6
                                   No pseudopotential on this center.
   48          6
                                   No pseudopotential on this center.
   49          6
                                   No pseudopotential on this center.
   50          6
                                   No pseudopotential on this center.
   51          6
                                   No pseudopotential on this center.
   52          6
                                   No pseudopotential on this center.
   53          6
                                   No pseudopotential on this center.
   54          6
                                   No pseudopotential on this center.
   55          6
                                   No pseudopotential on this center.
   56          6
                                   No pseudopotential on this center.
   57          6
                                   No pseudopotential on this center.
   58          6
                                   No pseudopotential on this center.
   59          1
                                   No pseudopotential on this center.
   60          1
                                   No pseudopotential on this center.
   61          1
                                   No pseudopotential on this center.
   62          1
                                   No pseudopotential on this center.
   63          1
                                   No pseudopotential on this center.
   64          1
                                   No pseudopotential on this center.
   65          1
                                   No pseudopotential on this center.
   66          1
                                   No pseudopotential on this center.
   67          1
                                   No pseudopotential on this center.
   68          1
                                   No pseudopotential on this center.
   69          1
                                   No pseudopotential on this center.
   70          1
                                   No pseudopotential on this center.
   71          1
                                   No pseudopotential on this center.
   72          1
                                   No pseudopotential on this center.
   73          1
                                   No pseudopotential on this center.
   74          1
                                   No pseudopotential on this center.
   75         46           18
                                      F and up 
                                                     0      598.3336444       -0.05631770    0.00000000
                                                     1      162.4298290      -20.12880360    0.00000000
                                                     2       51.5714771     -105.81979230    0.00000000
                                                     2       16.4888260      -42.57333450    0.00000000
                                                     2        5.8287656       -3.61650860    0.00000000
                                      S - F
                                                     0       73.3806304        3.00036510    0.00000000
                                                     1       14.7550438       32.43500930    0.00000000
                                                     2       17.8350204      459.08303830    0.00000000
                                                     2       12.7111477     -868.06290290    0.00000000
                                                     2        9.3292063      514.47260980    0.00000000
                                      P - F
                                                     0       55.6689877        4.95930990    0.00000000
                                                     1       64.2337771       21.17110290    0.00000000
                                                     2       17.6254952      605.05600920    0.00000000
                                                     2       11.9058155     -726.96418460    0.00000000
                                                     2        8.5100832      396.32748830    0.00000000
                                      D - F
                                                     0       49.9994728        3.05087450    0.00000000
                                                     1       39.7477547       22.25065800    0.00000000
                                                     2       11.4321366      674.83576980    0.00000000
                                                     2        9.1790080    -1040.85540480    0.00000000
                                                     2        7.5624429      505.93751470    0.00000000
   76         17
                                   No pseudopotential on this center.
   77         17
                                   No pseudopotential on this center.
 ======================================================================================================
 There are   764 symmetry adapted cartesian basis functions of A   symmetry.
 There are   764 symmetry adapted basis functions of A   symmetry.
   764 basis functions,  1505 primitive gaussians,   764 cartesian basis functions
   178 alpha electrons      178 beta electrons
       nuclear repulsion energy      7098.1485474630 Hartrees.
 NAtoms=   77 NActive=   77 NUniq=   77 SFac= 1.00D+00 NAtFMM=   60 NAOKFM=T Big=T
 Integral buffers will be    131072 words long.
 Raffenetti 2 integral format.
 Two-electron integral symmetry is turned on.
 Nuclear repulsion after empirical dispersion term =     7097.9932226404 Hartrees.
 Standard density basis: Auto (5D, 7F)
  3340 Density fitting functions
 There are  3340 symmetry adapted density basis functions of A   symmetry.
 One-electron integrals computed using PRISM.
   1 Symmetry operations used in ECPInt.
 ECPInt:  NShTT=   31878 NPrTT=  214492 LenC2=   24665 LenP2D=   83209.
 LDataN:  DoStor=T MaxTD1= 5 Len=  102
 NBasis=   764 RedAO= T EigKep=  3.83D-04  NBF=   764
 NBsUse=   764 1.00D-06 EigRej= -1.00D+00 NBFU=   764
 NBasis=      764 NBas6D=      764 NTT=      292230   NTT6D=   292230
 NDBShl=      660 NDBF=       3340 NDBF6D=     3940  NNucDB=        0
 IDenFi=        2 ISolve=        0 FullAP=F BlkAPC=T NucTyp=        0
 TolInv= 1.00D-06 TolIt=  1.00D-10 IR12=0.
 FoFCou: FMM=F IPFlag=           0 FMFlag=           0 FMFlg1=           0
         NFxFlg=           0 DoJE=F BraDBF=T KetDBF=T FulRan=T
         wScrn=  0.000000 ICntrl=     600 IOpCl=  3 I1Cent=           6 NGrid=           0
         NMat0=    1 NMatS0=   3940 NMatT0=    0 NMatD0=    1 NMtDS0=    0 NMtDT0=    0
 Petite list used in FoFCou.
 DBF EigKep=  1.06D-06 EigRej= -1.00D+00
 NDBF=   3340  NBFD=  3340
 NRank=  3340 NBFDU=  3340
 S*AI*S=  12.5415055401    
 Defaulting to unpruned grid for atomic number  46.
 ExpMin= 2.62D-02 ExpMax= 2.52D+04 ExpMxC= 3.78D+03 IAcc=3 IRadAn=         5 AccDes= 0.00D+00
 Harris functional with IExCor= 1009 and IRadAn=       5 diagonalized for initial guess.
 HarFok:  IExCor= 1009 AccDes= 0.00D+00 IRadAn=         5 IDoV= 1 UseB2=F ITyADJ=14
 ICtDFT=  3500011 ScaDFX=  1.000000  1.000000  1.000000  1.000000
 Defaulting to unpruned grid for atomic number  46.
 Defaulting to unpruned grid for atomic number  46.
 Defaulting to unpruned grid for atomic number  46.
 Defaulting to unpruned grid for atomic number  46.
 Defaulting to unpruned grid for atomic number  46.
 Defaulting to unpruned grid for atomic number  46.
 Defaulting to unpruned grid for atomic number  46.
 Defaulting to unpruned grid for atomic number  46.
 Defaulting to unpruned grid for atomic number  46.
 Defaulting to unpruned grid for atomic number  46.
 Defaulting to unpruned grid for atomic number  46.
 Defaulting to unpruned grid for atomic number  46.
 Defaulting to unpruned grid for atomic number  46.
 Defaulting to unpruned grid for atomic number  46.
 FoFCou: FMM=F IPFlag=           0 FMFlag=      100000 FMFlg1=        2001
         NFxFlg=           0 DoJE=T BraDBF=F KetDBF=T FulRan=T
         wScrn=  0.000000 ICntrl=     500 IOpCl=  0 I1Cent=   200000004 NGrid=           0
         NMat0=    1 NMatS0=      1 NMatT0=    0 NMatD0=    1 NMtDS0=    0 NMtDT0=    0
 Petite list used in FoFCou.
 Requested convergence on RMS density matrix=1.00D-08 within 500 cycles.
 Requested convergence on MAX density matrix=1.00D-06.
 Requested convergence on             energy=1.00D-06.
 No special actions if energy rises.
 FoFCou: FMM=F IPFlag=           0 FMFlag=      100000 FMFlg1=        2001
         NFxFlg=           0 DoJE=T BraDBF=T KetDBF=F FulRan=T
         wScrn=  0.000000 ICntrl=     500 IOpCl=  0 I1Cent=           5 NGrid=           0
         NMat0=    1 NMatS0=      1 NMatT0=    0 NMatD0=    1 NMtDS0=    0 NMtDT0=    0
 Symmetry not used in FoFCou.
 Defaulting to unpruned grid for atomic number  46.
 Defaulting to unpruned grid for atomic number  46.
 Defaulting to unpruned grid for atomic number  46.
 Defaulting to unpruned grid for atomic number  46.
 Defaulting to unpruned grid for atomic number  46.
 Defaulting to unpruned grid for atomic number  46.
 Defaulting to unpruned grid for atomic number  46.
 Defaulting to unpruned grid for atomic number  46.
 Defaulting to unpruned grid for atomic number  46.
 Defaulting to unpruned grid for atomic number  46.
 Defaulting to unpruned grid for atomic number  46.
 Defaulting to unpruned grid for atomic number  46.
 Defaulting to unpruned grid for atomic number  46.
 Defaulting to unpruned grid for atomic number  46.
 EnCoef did   100 forward-backward iterations
 EnCoef did   100 forward-backward iterations
 EnCoef did   100 forward-backward iterations
 EnCoef did   100 forward-backward iterations
 EnCoef did     1 forward-backward iterations
 EnCoef did     7 forward-backward iterations
 EnCoef did     4 forward-backward iterations
 Initial convergence to 1.0D-05 achieved.  Increase integral accuracy.
 SCF Done:  E(RPBE-PBE) =  -3307.99651836     A.U. after   27 cycles
            NFock= 27  Conv=0.80D-08     -V/T= 2.0320

 **********************************************************************

            Population analysis using the SCF density.

 **********************************************************************

 Orbital symmetries:
       Occupied  (A) (A) (A) (A) (A) (A) (A) (A) (A) (A) (A) (A)
                 (A) (A) (A) (A) (A) (A) (A) (A) (A) (A) (A) (A)
                 (A) (A) (A) (A) (A) (A) (A) (A) (A) (A) (A) (A)
                 (A) (A) (A) (A) (A) (A) (A) (A) (A) (A) (A) (A)
                 (A) (A) (A) (A) (A) (A) (A) (A) (A) (A) (A) (A)
                 (A) (A) (A) (A) (A) (A) (A) (A) (A) (A) (A) (A)
                 (A) (A) (A) (A) (A) (A) (A) (A) (A) (A) (A) (A)
                 (A) (A) (A) (A) (A) (A) (A) (A) (A) (A) (A) (A)
                 (A) (A) (A) (A) (A) (A) (A) (A) (A) (A) (A) (A)
                 (A) (A) (A) (A) (A) (A) (A) (A) (A) (A) (A) (A)
                 (A) (A) (A) (A) (A) (A) (A) (A) (A) (A) (A) (A)
                 (A) (A) (A) (A) (A) (A) (A) (A) (A) (A) (A) (A)
                 (A) (A) (A) (A) (A) (A) (A) (A) (A) (A) (A) (A)
                 (A) (A) (A) (A) (A) (A) (A) (A) (A) (A) (A) (A)
                 (A) (A) (A) (A) (A) (A) (A) (A) (A) (A)
       Virtual   (A) (A) (A) (A) (A) (A) (A) (A) (A) (A) (A) (A)
                 (A) (A) (A) (A) (A) (A) (A) (A) (A) (A) (A) (A)
                 (A) (A) (A) (A) (A) (A) (A) (A) (A) (A) (A) (A)
                 (A) (A) (A) (A) (A) (A) (A) (A) (A) (A) (A) (A)
                 (A) (A) (A) (A) (A) (A) (A) (A) (A) (A) (A) (A)
                 (A) (A) (A) (A) (A) (A) (A) (A) (A) (A) (A) (A)
                 (A) (A) (A) (A) (A) (A) (A) (A) (A) (A) (A) (A)
                 (A) (A) (A) (A) (A) (A) (A) (A) (A) (A) (A) (A)
                 (A) (A) (A) (A) (A) (A) (A) (A) (A) (A) (A) (A)
                 (A) (A) (A) (A) (A) (A) (A) (A) (A) (A) (A) (A)
                 (A) (A) (A) (A) (A) (A) (A) (A) (A) (A) (A) (A)
                 (A) (A) (A) (A) (A) (A) (A) (A) (A) (A) (A) (A)
                 (A) (A) (A) (A) (A) (A) (A) (A) (A) (A) (A) (A)
                 (A) (A) (A) (A) (A) (A) (A) (A) (A) (A) (A) (A)
                 (A) (A) (A) (A) (A) (A) (A) (A) (A) (A) (A) (A)
                 (A) (A) (A) (A) (A) (A) (A) (A) (A) (A) (A) (A)
                 (A) (A) (A) (A) (A) (A) (A) (A) (A) (A) (A) (A)
                 (A) (A) (A) (A) (A) (A) (A) (A) (A) (A) (A) (A)
                 (A) (A) (A) (A) (A) (A) (A) (A) (A) (A) (A) (A)
                 (A) (A) (A) (A) (A) (A) (A) (A) (A) (A) (A) (A)
                 (A) (A) (A) (A) (A) (A) (A) (A) (A) (A) (A) (A)
                 (A) (A) (A) (A) (A) (A) (A) (A) (A) (A) (A) (A)
                 (A) (A) (A) (A) (A) (A) (A) (A) (A) (A) (A) (A)
                 (A) (A) (A) (A) (A) (A) (A) (A) (A) (A) (A) (A)
                 (A) (A) (A) (A) (A) (A) (A) (A) (A) (A) (A) (A)
                 (A) (A) (A) (A) (A) (A) (A) (A) (A) (A) (A) (A)
                 (A) (A) (A) (A) (A) (A) (A) (A) (A) (A) (A) (A)
                 (A) (A) (A) (A) (A) (A) (A) (A) (A) (A) (A) (A)
                 (A) (A) (A) (A) (A) (A) (A) (A) (A) (A) (A) (A)
                 (A) (A) (A) (A) (A) (A) (A) (A) (A) (A) (A) (A)
                 (A) (A) (A) (A) (A) (A) (A) (A) (A) (A) (A) (A)
                 (A) (A) (A) (A) (A) (A) (A) (A) (A) (A) (A) (A)
                 (A) (A) (A) (A) (A) (A) (A) (A) (A) (A) (A) (A)
                 (A) (A) (A) (A) (A) (A) (A) (A) (A) (A) (A) (A)
                 (A) (A) (A) (A) (A) (A) (A) (A) (A) (A) (A) (A)
                 (A) (A) (A) (A) (A) (A) (A) (A) (A) (A) (A) (A)
                 (A) (A) (A) (A) (A) (A) (A) (A) (A) (A) (A) (A)
                 (A) (A) (A) (A) (A) (A) (A) (A) (A) (A) (A) (A)
                 (A) (A) (A) (A) (A) (A) (A) (A) (A) (A) (A) (A)
                 (A) (A) (A) (A) (A) (A) (A) (A) (A) (A) (A) (A)
                 (A) (A) (A) (A) (A) (A) (A) (A) (A) (A) (A) (A)
                 (A) (A) (A) (A) (A) (A) (A) (A) (A) (A) (A) (A)
                 (A) (A) (A) (A) (A) (A) (A) (A) (A) (A) (A) (A)
                 (A) (A) (A) (A) (A) (A) (A) (A) (A) (A) (A) (A)
                 (A) (A) (A) (A) (A) (A) (A) (A) (A) (A) (A) (A)
                 (A) (A) (A) (A) (A) (A) (A) (A) (A) (A) (A) (A)
                 (A) (A) (A) (A) (A) (A) (A) (A) (A) (A) (A) (A)
                 (A) (A) (A) (A) (A) (A) (A) (A) (A) (A) (A) (A)
                 (A) (A) (A) (A) (A) (A) (A) (A) (A) (A)
 The electronic state is 1-A.
 Alpha  occ. eigenvalues -- -100.58799-100.58276 -76.37701 -76.37585 -18.83808
 Alpha  occ. eigenvalues --   -9.98130  -9.97768  -9.94622  -9.93496  -9.93291
 Alpha  occ. eigenvalues --   -9.93238  -9.92989  -9.92954  -9.92615  -9.92562
 Alpha  occ. eigenvalues --   -9.92556  -9.92415  -9.92173  -9.92136  -9.91967
 Alpha  occ. eigenvalues --   -9.91678  -9.91639  -9.91541  -9.91462  -9.91454
 Alpha  occ. eigenvalues --   -9.91423  -9.91372  -9.91353  -9.91321  -9.91200
 Alpha  occ. eigenvalues --   -9.91182  -9.91143  -9.91120  -9.90758  -9.90714
 Alpha  occ. eigenvalues --   -9.90287  -9.90244  -9.90224  -9.89927  -9.89906
 Alpha  occ. eigenvalues --   -9.89676  -9.89622  -9.89543  -9.89461  -9.08326
 Alpha  occ. eigenvalues --   -9.07797  -6.90690  -6.90181  -6.89913  -6.89849
 Alpha  occ. eigenvalues --   -6.89391  -6.89297  -6.35397  -6.35296  -4.57229
 Alpha  occ. eigenvalues --   -4.57214  -4.57154  -4.57086  -4.56886  -4.56787
 Alpha  occ. eigenvalues --   -3.19023  -1.95938  -1.95864  -1.91810  -1.02976
 Alpha  occ. eigenvalues --   -0.79836  -0.79562  -0.78245  -0.77798  -0.77133
 Alpha  occ. eigenvalues --   -0.76287  -0.75258  -0.71409  -0.70201  -0.69790
 Alpha  occ. eigenvalues --   -0.68324  -0.68071  -0.67791  -0.67541  -0.67119
 Alpha  occ. eigenvalues --   -0.67092  -0.66497  -0.66413  -0.66168  -0.64009
 Alpha  occ. eigenvalues --   -0.63347  -0.62826  -0.60558  -0.59981  -0.58954
 Alpha  occ. eigenvalues --   -0.58147  -0.55326  -0.55178  -0.54568  -0.54321
 Alpha  occ. eigenvalues --   -0.54068  -0.53706  -0.53301  -0.53202  -0.51784
 Alpha  occ. eigenvalues --   -0.51319  -0.50109  -0.50054  -0.46823  -0.46536
 Alpha  occ. eigenvalues --   -0.45962  -0.45495  -0.44909  -0.43946  -0.43583
 Alpha  occ. eigenvalues --   -0.42350  -0.42250  -0.41246  -0.41117  -0.40786
 Alpha  occ. eigenvalues --   -0.40566  -0.40382  -0.39961  -0.39707  -0.39628
 Alpha  occ. eigenvalues --   -0.39488  -0.38987  -0.38075  -0.37933  -0.37829
 Alpha  occ. eigenvalues --   -0.37601  -0.37056  -0.36973  -0.36636  -0.36325
 Alpha  occ. eigenvalues --   -0.36240  -0.35384  -0.35308  -0.35101  -0.34701
 Alpha  occ. eigenvalues --   -0.34229  -0.34073  -0.33799  -0.33233  -0.32414
 Alpha  occ. eigenvalues --   -0.32253  -0.32028  -0.31504  -0.31320  -0.31006
 Alpha  occ. eigenvalues --   -0.30827  -0.30708  -0.30584  -0.30412  -0.30012
 Alpha  occ. eigenvalues --   -0.29707  -0.29579  -0.29130  -0.28836  -0.28671
 Alpha  occ. eigenvalues --   -0.27951  -0.26377  -0.25268  -0.24913  -0.24280
 Alpha  occ. eigenvalues --   -0.23755  -0.23320  -0.23177  -0.23059  -0.22945
 Alpha  occ. eigenvalues --   -0.22794  -0.22444  -0.22208  -0.22121  -0.21304
 Alpha  occ. eigenvalues --   -0.21202  -0.20760  -0.20372  -0.17999  -0.17408
 Alpha  occ. eigenvalues --   -0.17301  -0.16468  -0.16312
 Alpha virt. eigenvalues --   -0.09337  -0.07137  -0.06208  -0.05558  -0.05113
 Alpha virt. eigenvalues --   -0.04965  -0.04728  -0.04242  -0.04035  -0.03700
 Alpha virt. eigenvalues --   -0.03215  -0.03008  -0.02236   0.00203   0.02133
 Alpha virt. eigenvalues --    0.02324   0.03190   0.04394   0.04706   0.05216
 Alpha virt. eigenvalues --    0.05643   0.05916   0.06542   0.07158   0.07855
 Alpha virt. eigenvalues --    0.08163   0.08417   0.08629   0.08898   0.09194
 Alpha virt. eigenvalues --    0.09394   0.09840   0.10167   0.10508   0.10822
 Alpha virt. eigenvalues --    0.11056   0.11360   0.12013   0.12028   0.12141
 Alpha virt. eigenvalues --    0.12177   0.12579   0.12630   0.13442   0.13502
 Alpha virt. eigenvalues --    0.13894   0.13944   0.14332   0.14737   0.15030
 Alpha virt. eigenvalues --    0.15269   0.15755   0.15868   0.16265   0.16400
 Alpha virt. eigenvalues --    0.16566   0.16901   0.16959   0.17074   0.17621
 Alpha virt. eigenvalues --    0.17842   0.18303   0.18797   0.19014   0.20111
 Alpha virt. eigenvalues --    0.20303   0.20390   0.21390   0.22219   0.22757
 Alpha virt. eigenvalues --    0.23741   0.23847   0.24280   0.24821   0.25288
 Alpha virt. eigenvalues --    0.25583   0.25757   0.25990   0.26402   0.26680
 Alpha virt. eigenvalues --    0.26860   0.27118   0.27534   0.27680   0.27823
 Alpha virt. eigenvalues --    0.28682   0.28810   0.28969   0.29334   0.29497
 Alpha virt. eigenvalues --    0.30924   0.31200   0.31743   0.32677   0.33003
 Alpha virt. eigenvalues --    0.33703   0.34884   0.36482   0.36723   0.37602
 Alpha virt. eigenvalues --    0.38652   0.39649   0.40540   0.40928   0.41560
 Alpha virt. eigenvalues --    0.42731   0.43909   0.44289   0.44582   0.45345
 Alpha virt. eigenvalues --    0.45624   0.46124   0.46535   0.46786   0.46937
 Alpha virt. eigenvalues --    0.46981   0.47148   0.47343   0.47862   0.48292
 Alpha virt. eigenvalues --    0.48521   0.48572   0.48881   0.49373   0.49510
 Alpha virt. eigenvalues --    0.49824   0.50157   0.50565   0.50625   0.50764
 Alpha virt. eigenvalues --    0.50948   0.51194   0.51525   0.51691   0.51909
 Alpha virt. eigenvalues --    0.52301   0.52472   0.52713   0.52820   0.53112
 Alpha virt. eigenvalues --    0.53417   0.53585   0.53791   0.53969   0.54195
 Alpha virt. eigenvalues --    0.54604   0.54839   0.55088   0.55237   0.55334
 Alpha virt. eigenvalues --    0.55621   0.55889   0.56332   0.56413   0.56549
 Alpha virt. eigenvalues --    0.56691   0.56926   0.57171   0.57290   0.57934
 Alpha virt. eigenvalues --    0.58378   0.58605   0.58630   0.58862   0.59229
 Alpha virt. eigenvalues --    0.59581   0.59727   0.59846   0.60656   0.60881
 Alpha virt. eigenvalues --    0.61403   0.61891   0.62436   0.62767   0.63419
 Alpha virt. eigenvalues --    0.63690   0.64443   0.64880   0.65895   0.66058
 Alpha virt. eigenvalues --    0.66984   0.67486   0.67773   0.68307   0.68734
 Alpha virt. eigenvalues --    0.69023   0.69182   0.69917   0.70873   0.71382
 Alpha virt. eigenvalues --    0.71776   0.71986   0.73204   0.73487   0.73911
 Alpha virt. eigenvalues --    0.74502   0.74976   0.75587   0.76042   0.76280
 Alpha virt. eigenvalues --    0.76610   0.76845   0.77474   0.77894   0.77948
 Alpha virt. eigenvalues --    0.78377   0.78517   0.79021   0.79295   0.79411
 Alpha virt. eigenvalues --    0.79676   0.79955   0.80164   0.80364   0.80675
 Alpha virt. eigenvalues --    0.80766   0.80948   0.81343   0.81855   0.81961
 Alpha virt. eigenvalues --    0.82037   0.82528   0.83049   0.83257   0.83355
 Alpha virt. eigenvalues --    0.83880   0.84387   0.84554   0.84925   0.85030
 Alpha virt. eigenvalues --    0.85350   0.85748   0.86320   0.86407   0.86604
 Alpha virt. eigenvalues --    0.86932   0.87732   0.88206   0.88525   0.88596
 Alpha virt. eigenvalues --    0.88650   0.89482   0.89553   0.90213   0.90376
 Alpha virt. eigenvalues --    0.90973   0.91333   0.91490   0.91642   0.91948
 Alpha virt. eigenvalues --    0.91986   0.92602   0.92876   0.93286   0.93797
 Alpha virt. eigenvalues --    0.93980   0.94641   0.95240   0.95466   0.96064
 Alpha virt. eigenvalues --    0.96191   0.96608   0.96991   0.97468   0.97827
 Alpha virt. eigenvalues --    0.98273   0.98558   0.98847   1.00099   1.00216
 Alpha virt. eigenvalues --    1.00346   1.01244   1.01519   1.02103   1.03042
 Alpha virt. eigenvalues --    1.03305   1.03678   1.04495   1.04737   1.05407
 Alpha virt. eigenvalues --    1.05718   1.06481   1.06880   1.07874   1.08146
 Alpha virt. eigenvalues --    1.08701   1.09231   1.09497   1.09925   1.10202
 Alpha virt. eigenvalues --    1.10809   1.10928   1.11646   1.12163   1.12718
 Alpha virt. eigenvalues --    1.13408   1.13702   1.15365   1.15451   1.15629
 Alpha virt. eigenvalues --    1.17234   1.17842   1.18198   1.18876   1.19251
 Alpha virt. eigenvalues --    1.19510   1.20804   1.21574   1.21834   1.22404
 Alpha virt. eigenvalues --    1.22822   1.23558   1.24781   1.25707   1.26074
[...]
 0050117,0.00011584,-0.00050898,0.00071787,-0.00012510,-0.00064593,-0.0
 0053954,0.00029392,-0.00025229,-0.00003413,0.00005901,0.00005172,0.000
 00987,-0.00004765,0.00001207,0.00001899,-0.00002202,-0.00025910,-0.000
 00431,0.00001152,0.00000877,-0.00001442,0.00000271,0.00001786,-0.00005
 888,-0.00005383,0.00016487,-0.00002361,-0.00011546,0.00053015,-0.00001
 286,-0.00003386,0.00006642,-0.00001797,-0.00011202,-0.00004561,-0.0000
 9113,-0.00000581,-0.00000092,0.00000655,0.00001752,-0.00001967,-0.0001
 1399,0.00083753,0.00032200,0.00008134,-0.00001109,-0.00001114,0.000008
 70,-0.00002933,0.00008754,0.00005065,-0.00004517,0.00004769,-0.0001685
 7,-0.00001790,-0.00020834,-0.03490626,-0.04409001,0.09449060,-0.001793
 72,-0.00138695,0.00248211,-0.00226800,-0.00011685,-0.00022758,0.000561
 19,-0.00006095,0.00095627,-0.00010902,0.00023670,0.00008925,-0.0001308
 1,0.00005913,0.00012568,0.00004883,0.00005642,-0.00020433,-0.00081981,
 0.00040554,-0.00016096,0.00119149,-0.00101430,0.00082404,-0.00018141,0
 .00007180,-0.00012519,0.00011278,-0.00003042,0.00002909,0.00003772,-0.
 00009774,0.00008919,-0.00223683,0.00048745,0.00049088,-0.00032025,-0.0
 0038498,-0.00055789,0.00024214,-0.00030670,-0.00001686,-0.00009898,-0.
 00015622,0.00014176,0.00027431,-0.00009800,0.00004554,-0.00015040,-0.0
 0016284,0.00064907,-0.00099027,-0.00024629,0.00105269,0.00009511,0.000
 51895,-0.00068281,-0.00006720,0.00000295,-0.00000290,-0.00015905,-0.00
 010381,0.00002534,0.00000425,-0.00008157,0.00004512,0.00000612,-0.0001
 3952,0.00002178,-0.00000540,-0.00010682,-0.00004931,-0.00002463,-0.000
 00520,0.00004369,-0.00004942,0.00003475,0.00014326,0.00000262,0.000031
 26,-0.00003516,-0.00001959,-0.00000593,-0.00004100,-0.00008648,-0.0000
 1604,-0.00003491,-0.00001845,-0.00001384,-0.00001688,0.00008320,-0.000
 01734,0.00004407,-0.00005145,0.00003138,-0.00003524,-0.00003101,0.0000
 2746,-0.00008588,-0.00003835,-0.00000484,0.00012334,-0.00014396,0.0001
 1464,0.00000510,-0.00002262,-0.00010337,0.00008044,-0.00008914,-0.0000
 3295,0.00001729,-0.00006615,-0.00010987,-0.00003617,-0.00012768,0.0001
 2492,-0.00003140,-0.00340928,-0.00065895,0.00251207,0.00066350,-0.0006
 7615,-0.00014160,0.00001442,0.00009263,0.00011154,0.00015321,-0.000133
 80,0.00000847,-0.00003007,0.00010026,-0.00007510,0.00007157,-0.0001825
 4,0.00031031,-0.00075220,0.00131182,-0.00100179,0.00026976,-0.00007214
 ,-0.00017420,0.00009971,-0.00004845,0.00008756,0.00001245,0.00001123,-
 0.00006599,0.00005893,-0.00000618,0.00001657,0.00010389,-0.00004653,0.
 00010610,0.00016620,0.00001077,-0.00017681,-0.00028472,0.00155785,-0.0
 0078664,0.00082287,-0.00012453,-0.00019236,0.00032042,-0.00005421,0.00
 020175,-0.00037767,0.00008181,0.00006249,0.00037060,0.00052678,-0.0006
 4587,-0.00034220,-0.00009603,-0.00157065,-0.00006174,-0.00013599,0.000
 09185,-0.00001643,-0.00001757,0.00001310,-0.00001123,-0.00003041,0.000
 02585,0.00002931,-0.00002319,0.00006747,0.00006992,0.00002094,0.000071
 07,-0.00012790,0.00008745,0.00006742,-0.00047146,0.00058201,0.00019732
 ,-0.00007307,0.00003731,-0.00001698,-0.00004160,0.00004422,-0.00000036
 ,-0.00003711,0.00001042,0.00000857,-0.00004978,0.00001338,-0.00001006,
 -0.00020970,0.00010353,0.00017693,0.00016468,-0.00004712,0.00008671,-0
 .00003043,0.00001175,0.00006270,0.00006496,0.00001088,0.00003285,-0.00
 009344,-0.00000531,-0.00007289,-0.06826477,-0.01425254,0.02184197,0.08
 189207,-0.00004461,0.00369696,0.00082835,-0.00120898,-0.00014002,-0.00
 001917,0.00017363,-0.00000509,0.00039412,-0.00005434,0.00012960,0.0000
 2172,-0.00004696,0.00001156,0.00002412,0.00003449,0.00006206,-0.000037
 31,-0.00021885,0.00010531,-0.00010635,0.00029542,-0.00008299,0.0001836
 2,-0.00003266,-0.00000837,-0.00003198,0.00003093,0.00001340,0.00001148
 ,-0.00001233,-0.00001949,0.00005178,0.00050605,-0.00020336,-0.00016848
 ,0.00001571,0.00006047,-0.00001413,-0.00004440,0.00004260,-0.00002003,
 0.00000077,0.00001857,-0.00006411,-0.00005304,-0.00005679,0.00006021,0
 .00002519,0.00007679,0.00000030,-0.00020040,-0.00012985,0.00033372,-0.
 00006766,0.00004720,-0.00023008,0.00002409,0.00001184,-0.00003834,-0.0
 0002936,-0.00003801,0.00007675,-0.00005275,0.00000698,0.00000771,0.000
 04590,0.00001859,0.00000877,-0.00002433,-0.00005340,-0.00000698,-0.000
 00875,-0.00001531,0.00001192,-0.00001607,0.00001353,0.00005167,0.00000
 661,0.00000948,-0.00000863,-0.00000937,-0.00000038,-0.00000418,-0.0000
 2616,-0.00001859,-0.00000448,-0.00000093,0.00000619,-0.00000169,0.0000
 1369,0.00000454,0.00001594,-0.00000729,-0.00000108,-0.00000768,-0.0000
 0875,0.00000422,-0.00001937,0.00000119,-0.00000124,0.00005139,0.000038
 81,-0.00000030,-0.00000845,-0.00000003,0.00000726,-0.00000104,0.000005
 55,-0.00000555,-0.00000049,0.00001181,-0.00000335,0.00000073,-0.000006
 72,-0.00000464,0.00001714,-0.00217784,-0.00281065,0.00270272,-0.000207
 98,-0.00006815,0.00008923,0.00012863,-0.00008370,0.00001641,-0.0000244
 5,0.00004959,0.00003450,0.00001729,-0.00001997,0.00000529,0.00002863,0
 .00001569,0.00001137,-0.00003288,-0.00000884,0.00000930,-0.00021635,-0
 .00009008,-0.00014183,0.00001662,0.00002858,0.00008155,0.00002222,0.00
 000592,-0.00002905,0.00000948,-0.00000798,-0.00001510,-0.00003153,-0.0
 0004064,0.00013886,0.00002273,0.00032608,-0.00029089,0.00036886,-0.002
 05848,0.00063119,-0.00136523,0.00081125,0.00101315,-0.00017973,-0.0008
 2739,-0.00068004,0.00108148,0.00018277,0.00027574,-0.00086222,0.000384
 08,0.00070182,0.00170388,-0.00173972,0.00212340,-0.00003489,0.00001913
 ,-0.00000057,-0.00000750,-0.00000254,0.00000582,0.00000629,-0.00000433
 ,-0.00000253,0.00000365,-0.00000868,0.00001115,0.00001642,0.00000479,0
 .00000864,0.00001974,0.00014127,-0.00011501,0.00023755,-0.00049162,0.0
 0047554,-0.00000776,-0.00000701,0.00000720,-0.00000163,0.00000113,0.00
 001450,-0.00000275,-0.00001454,0.00000663,0.00000943,0.00001972,0.0000
 0396,0.00024639,-0.00006043,0.00009060,0.00002219,0.00002096,0.0000289
 5,0.00001905,-0.00000017,-0.00003209,-0.00001097,0.00001708,-0.0000080
 3,-0.00002108,0.00000897,-0.00001594,-0.01418056,-0.01778908,0.0069919
 3,0.01084846,0.01908662,0.00063391,0.00062307,0.00460680,-0.00047616,-
 0.00005669,-0.00011398,-0.00006917,0.00009922,0.00007761,-0.00002416,0
 .00001847,-0.00005383,0.00001612,-0.00000503,0.00000061,0.00003983,0.0
 0003802,-0.00001086,0.00007584,-0.00006805,-0.00003787,0.00026643,0.00
 032743,0.00020677,0.00001934,-0.00001203,0.00001645,-0.00001383,0.0000
 0822,0.00000356,-0.00001970,0.00000616,0.00002434,0.00051861,0.0000776
 7,-0.00040416,0.00013838,0.00001515,0.00031563,0.00000432,0.00021350,0
 .00000439,-0.00000285,-0.00000906,-0.00013182,-0.00006976,-0.00003371,
 0.00002352,0.00003817,0.00002918,-0.00025221,0.00135422,0.00017704,-0.
 00119585,-0.00001488,-0.00046974,0.00060042,0.00010080,0.00000183,-0.0
 0002883,0.00017810,0.00009473,0.00000742,-0.00006253,0.00009159,-0.000
 06127,0.00009297,0.00017048,0.00003592,-0.00000527,0.00000567,0.000014
 17,-0.00000039,-0.00001705,-0.00001127,0.00000310,-0.00000789,-0.00000
 065,0.00000605,0.00000205,0.00000185,0.00000565,-0.00000557,0.00000569
 ,-0.00000779,0.00001287,0.00000828,0.00001576,-0.00000217,-0.00000670,
 -0.00002087,-0.00000787,-0.00003547,0.00002102,-0.00002559,0.00001180,
 0.00003556,-0.00002604,0.00005633,0.00003413,-0.00002750,-0.00020793,0
 .00002466,-0.00003078,0.00000439,-0.00001020,0.00004145,-0.00001950,0.
 00002464,0.00001232,-0.00000776,0.00002372,0.00003205,0.00001062,0.000
 00238,-0.00003825,0.00000136,0.00076707,0.00263025,-0.00206481,0.00002
 752,-0.00006539,0.00011233,-0.00002662,0.00002037,0.00006635,0.0000014
 6,-0.00001575,-0.00001056,0.00000347,-0.00001858,0.00001753,-0.0000569
 6,0.00002341,-0.00005616,0.00014602,-0.00035000,0.00019265,0.00010411,
 0.00005444,-0.00008751,0.00005357,0.00005244,0.00012436,-0.00001297,-0
 .00001382,0.00002217,-0.00001538,-0.00001511,-0.00001492,-0.00006679,-
 0.00005445,0.00008738,0.00001208,0.00035430,-0.00029994,0.00060977,0.0
 0196214,-0.00051621,0.00060790,-0.00048827,-0.00015813,0.00004320,0.00
 004875,0.00034509,-0.00059341,0.00023582,0.00012898,-0.00011740,0.0005
 3750,-0.00017768,-0.00120983,0.00014345,-0.00276399,0.00000700,-0.0000
 1462,0.00000965,0.00001284,0.00000746,-0.00000972,-0.00000803,0.000001
 39,0.00000265,-0.00000909,0.00000550,-0.00000836,-0.00000963,0.0000050
 2,-0.00000677,0.00001531,0.00005245,0.00001296,-0.00042003,0.00134605,
 -0.00064905,-0.00000172,-0.00004516,0.00002238,0.00000176,0.00000146,0
 .00001058,0.00001120,-0.00001977,0.00000707,0.00003579,0.00004105,0.00
 002026,0.00032194,0.00008466,-0.00004643,0.00003787,-0.00000245,-0.000
 08410,-0.00005518,0.00006105,0.00002083,0.00001048,0.00004934,-0.00006
 714,0.00006122,0.00001387,0.00007328,0.02429423,0.00740746,-0.01885451
 ,-0.02696527,-0.01344648,0.01997719,-0.00161076,0.00199537,0.00010467,
 0.00104898,-0.00087449,0.00065782,0.00003533,-0.00020591,-0.00034325,0
 .00031183,-0.00015629,0.00002800,-0.00010057,0.00007602,0.00017016,0.0
 0010071,0.00004264,-0.00024938,-0.00147806,0.00042733,0.00035925,0.000
 87117,-0.00034181,0.00009073,-0.00012909,0.00009512,-0.00004682,0.0000
 6788,-0.00004837,0.00002241,0.00004581,-0.00007774,0.00006870,0.000032
 50,-0.00012091,0.00006232,-0.00003335,-0.00039724,0.00007890,0.0000114
 4,0.00000801,0.00013279,-0.00001455,-0.00003220,-0.00000712,0.00003542
 ,-0.00004704,-0.00008773,0.00001467,-0.00026450,0.00012220,-0.00091772
 ,-0.00154050,-0.00113745,0.00143161,-0.00056249,0.00045432,-0.00066682
 ,0.00011252,0.00045798,-0.00039804,0.00038695,-0.00081075,0.00020289,-
 0.00058937,0.00063216,-0.00240911,-0.00285719,-0.00344966,0.00014545,-
 0.00002331,-0.00004338,0.00000086,-0.00000789,0.00000657,0.00000597,-0
 .00000443,-0.00002998,-0.00000576,0.00002263,-0.00001072,0.00000275,-0
 .00002088,-0.00004005,-0.00001651,0.00000905,0.00000689,-0.00001178,-0
 .00003474,-0.00002705,-0.00007821,-0.00004368,0.00001495,-0.00011947,0
 .00004905,0.00002115,0.00005070,-0.00010381,-0.00005650,-0.00264079,-0
 .00128645,-0.00119143,-0.00002490,-0.00000030,-0.00001737,-0.00003906,
 -0.00003450,0.00002139,-0.00002407,-0.00001312,0.00000781,-0.00005955,
 -0.00003595,-0.00000686,-0.00007137,0.00008623,0.00001009,0.00251864,0
 .00298668,0.00015688,-0.00036884,0.00066044,-0.00009653,0.00017021,-0.
 00027433,-0.00027672,-0.00002731,0.00004813,-0.00007331,-0.00001543,0.
 00004161,-0.00007969,0.00002157,0.00002720,0.00012424,-0.00026127,0.00
 045890,-0.00032502,-0.00089132,0.00124769,-0.00124044,0.00012081,0.000
 33360,0.00055820,0.00021918,0.00004856,-0.00010077,0.00005472,0.000101
 44,0.00001015,0.00005700,-0.00004163,-0.00005390,0.00008250,-0.0000012
 7,-0.00008055,0.00012667,0.00000375,-0.00012553,-0.00006820,-0.0000617
 5,-0.00005446,-0.00002439,-0.00006143,-0.00003393,0.00003357,-0.000028
 40,0.00003650,-0.00009303,0.00007401,0.00003127,0.00006030,-0.00003775
 ,0.00008410,0.00001649,-0.00002178,0.00003919,-0.00000499,0.00000592,-
 0.00001733,0.00001748,-0.00000007,-0.00005600,0.00001187,-0.00000068,0
 .00004075,0.00004115,0.00002520,0.00002150,0.00002461,-0.00000583,-0.0
 0001188,0.00003669,-0.00000598,0.00002003,-0.00010242,0.00002965,-0.00
 002208,0.00002801,0.00009226,0.00002079,-0.00001458,0.00003730,0.00001
 429,-0.00000956,0.00002835,0.00004020,-0.00007197,-0.00006324,-0.00006
 656,-0.00001632,-0.00000676,-0.00000673,-0.00002031,0.00000695,-0.0000
 0826,-0.00001440,0.00001806,0.00000461,-0.00000400,0.00006642,0.000070
 19,-0.01395282,0.00671872,-0.00121786,-0.00322340,0.00548124,-0.000493
 65,0.02197668,-0.00206882,-0.00628740,0.00172811,-0.00001831,0.0003516
 9,-0.00056053,0.00011929,0.00000650,0.00001159,-0.00015926,0.00009702,
 0.00005474,0.00007745,-0.00001956,-0.00006449,-0.00012396,0.00023459,0
 .00032567,0.00128190,-0.00072559,-0.00028357,-0.00132101,0.00082809,-0
 .00005762,0.00013064,-0.00022857,0.00000629,-0.00004366,0.00012994,-0.
 00000441,-0.00016161,0.00007819,0.00005679,-0.00080716,0.00007374,0.00
 030030,-0.00007135,-0.00011593,-0.00005559,0.00002430,-0.00003212,0.00
 000664,-0.00000176,0.00006653,0.00002986,0.00002732,0.00003210,-0.0000
 3951,-0.00000486,-0.00004014,0.00005221,-0.00000505,0.00025924,-0.0001
 4360,0.00052159,0.00022403,0.00020877,-0.00054158,0.00008025,0.0000657
 7,-0.00008090,0.00005384,-0.00044139,-0.00010515,-0.00023577,0.0004623
 9,-0.00242775,-0.00103827,-0.00252844,-0.00014022,-0.00010622,-0.00001
 579,-0.00002296,-0.00003623,0.00001768,-0.00003460,-0.00000876,0.00002
 539,0.00004116,-0.00000703,-0.00001712,-0.00003718,0.00004114,0.000065
 59,0.00005231,-0.00012470,-0.00000626,0.00000695,0.00009170,0.00008712
 ,0.00004671,-0.00000576,-0.00001049,-0.00007707,0.00002492,0.00001585,
 -0.00000979,-0.00012311,-0.00014133,-0.00183536,-0.00178425,-0.0010634
 3,0.00000460,-0.00008155,0.00001515,0.00002091,-0.00001939,0.00001281,
 0.00001867,-0.00000505,-0.00000339,0.00004319,-0.00000606,0.00000884,0
 .00005692,-0.00003772,0.00000590,0.00181387,-0.00148447,-0.00085318,0.
 00053073,-0.00164398,0.00005693,-0.00055267,0.00061826,0.00058062,0.00
 011425,-0.00005579,0.00017204,0.00004657,-0.00011921,0.00016528,0.0000
 3117,0.00002840,-0.00029291,0.00071224,-0.00115665,0.00063850,0.000779
 08,-0.00139201,0.00172804,-0.00010449,-0.00043197,-0.00089787,-0.00022
 250,-0.00006828,0.00017076,-0.00005910,-0.00007016,-0.00005182,-0.0001
 0467,-0.00003923,0.00009967,-0.00007325,0.00014105,0.00015772,-0.00016
 880,-0.00144117,0.00076542,0.00057532,0.00039825,0.00050080,0.00006429
 ,0.00006375,0.00007966,0.00005233,0.00003959,-0.00024680,0.00018691,-0
 .00012690,-0.00022678,-0.00021643,-0.00018418,-0.00032589,-0.00004428,
 0.00003635,-0.00010232,-0.00001159,-0.00001786,0.00004105,-0.00002396,
 0.00000552,0.00013333,-0.00001048,-0.00002389,-0.00004977,-0.00002509,
 -0.00000641,-0.00006230,-0.00007247,-0.00002567,0.00007614,-0.00011035
 ,-0.00010159,0.00006410,0.00009941,-0.00000739,0.00002351,-0.00005108,
 -0.00013502,-0.00002794,0.00001154,-0.00006097,-0.00002407,-0.00000278
 ,-0.00004021,-0.00006654,0.00007510,0.00013466,0.00020136,0.00009878,0
 .00002126,0.00001594,0.00005885,-0.00003609,0.00005083,0.00010328,-0.0
 0004864,-0.00003349,0.00001631,-0.00004975,-0.00003261,0.01187834,-0.0
 6584205,0.01768912,0.00374808,0.00145109,-0.00184493,-0.01151701,0.080
 06705,-0.00010050,0.00084917,-0.00273241,0.00025085,0.00029001,0.00005
 420,-0.00026955,0.00054331,0.00012152,-0.00010442,0.00003080,-0.000151
 15,0.00017424,-0.00009480,-0.00009570,0.00002139,-0.00011671,0.0003147
 2,-0.00029127,0.00014063,-0.00000172,0.00019864,0.00072042,-0.00022631
 ,0.00001626,-0.00002786,0.00006994,-0.00001948,0.00000910,0.00000852,-
 0.00004285,0.00001238,0.00003340,0.00053625,-0.00002795,0.00059748,0.0
 0004407,0.00006396,-0.00017553,-0.00006811,-0.00001400,0.00002879,0.00
 001313,-0.00001981,0.00003886,0.00003608,0.00006493,0.00012292,0.00008
 109,0.00019669,-0.00024553,-0.00080396,-0.00007668,-0.00020939,0.00000
 909,0.00015641,0.00033946,0.00001242,0.00033166,-0.00005051,-0.0002927
 8,-0.00002881,0.00003949,-0.00091681,-0.00034101,0.00056382,-0.0011421
 0,-0.00249678,-0.00246269,0.00002604,-0.00007064,-0.00007330,0.0000217
 8,0.00001247,-0.00000538,0.00000568,-0.00002532,-0.00000721,0.00001133
 ,0.00000367,-0.00000159,0.00000822,-0.00000532,0.00001375,0.00004695,-
 0.00001862,0.00003177,0.00001680,0.00000447,0.00001121,-0.00016910,-0.
 00007888,0.00007517,-0.00016935,-0.00000217,-0.00000090,0.00011882,-0.
 00008797,0.00000010,-0.00181294,-0.00082486,-0.00077545,0.00002425,0.0
 0000128,0.00005247,-0.00000606,0.00000122,-0.00000251,-0.00000434,0.00
 000718,0.00000999,-0.00000982,0.00004198,-0.00001165,-0.00005654,0.000
 07310,0.00003964,-0.00037714,0.00286876,0.00444875,0.00030199,-0.00088
 653,0.00009631,-0.00012370,0.00011172,0.00025902,0.00004669,-0.0000413
 0,0.00002573,0.00001192,-0.00004463,0.00001452,0.00000285,0.00007558,-
 0.00014672,0.00025153,-0.00041868,0.00011096,-0.00054225,0.00097986,-0
 .00102665,0.00010076,0.00026466,0.00044595,0.00014433,0.00005841,-0.00
 005398,0.00002971,0.00009853,-0.00002663,-0.00004372,-0.00004976,-0.00
 005136,0.00010459,0.00017097,-0.00015459,0.00002427,0.00048998,-0.0004
 5290,-0.00021736,-0.00006362,-0.00007027,-0.00005556,-0.00000850,-0.00
 003390,0.00001087,-0.00003740,0.00009585,-0.00004596,-0.00001210,0.000
 10856,0.00001258,0.00014718,0.00002865,-0.00000532,-0.00001102,0.00001
 069,-0.00000797,-0.00000070,-0.00001479,-0.00000581,0.00001444,0.00002
 612,-0.00001332,0.00000970,-0.00001170,-0.00001331,0.00001420,-0.00003
 058,0.00002965,0.00002219,-0.00004632,0.00000567,-0.00002302,-0.000060
 99,-0.00005341,0.00000645,-0.00001214,0.00003360,0.00006434,0.00001855
 ,0.00001387,0.00001860,0.00000665,0.00000097,0.00003242,0.00003688,-0.
 00005951,-0.00011009,-0.00012958,-0.00002676,-0.00000811,-0.00000405,-
 0.00001686,0.00001368,-0.00002151,-0.00003082,0.00002580,0.00000705,-0
 .00002093,-0.00006415,0.00001441,-0.00260746,0.01555389,-0.01307544,0.
 00055537,-0.00206031,0.00116432,0.00719254,-0.01639809,0.01316685\\0.0
 0000276,-0.00000336,-0.00000287,-0.00000003,0.00000319,0.00000284,0.00
 000039,-0.00000003,-0.00000101,0.00000124,0.00000093,0.00000025,0.0000
 0002,0.00000018,-0.00000170,0.00000080,0.00000114,0.00000134,-0.000000
 68,0.00000021,-0.00000224,0.00000290,-0.00000361,0.00000178,-0.0000042
 2,-0.00000215,0.00000056,0.00000240,0.00000190,-0.00000178,0.00000292,
 0.00000294,-0.00000091,-0.00000057,0.00000147,0.00000092,0.00000030,0.
 00000082,0.00000045,-0.00000063,-0.00000007,-0.00000042,0.00000006,0.0
 0000081,0.00000083,0.00000008,0.00000103,0.00000006,-0.00000074,-0.000
 00168,0.00000003,0.00000122,-0.00000015,0.00000010,-0.00000057,0.00000
 024,0.00000110,0.00000104,-0.00000002,-0.00000051,0.00000053,0.0000012
 5,-0.00000073,-0.00000105,0.00000033,-0.00000020,0.00000149,0.00000049
 ,-0.00000002,0.00000043,0.00000089,-0.00000033,0.00000113,0.00000078,0
 .00000020,0.00000025,0.00000072,-0.00000048,-0.00000036,0.00000059,0.0
 0000095,0.00000004,0.00000058,-0.00000051,0.00000050,0.00000004,0.0000
 0003,0.00000022,0.00000016,-0.00000026,0.00000024,0.00000045,-0.000000
 44,0.00000032,0.00000072,-0.00000023,0.00000057,-0.00000001,-0.0000005
 9,-0.00000002,-0.00000077,-0.00000042,-0.00000033,-0.00000014,-0.00000
 006,-0.00000037,0.00000081,0.00000052,-0.00000079,0.00000033,0.0000001
 2,-0.00000086,-0.00000014,0.00000042,0.00000008,0.00000039,0.00000019,
 0.00000092,-0.00000364,-0.00000041,-0.00000115,0.00000281,-0.00000056,
 0.00000020,-0.00000058,0.00000047,-0.00000020,-0.00000027,0.00000064,-
 0.00000018,-0.00000046,-0.00000155,0.00000159,-0.00000205,0.00000238,-
 0.00000263,0.00000531,-0.00000351,-0.00000108,-0.00000074,0.00000212,-
 0.00000039,-0.00000026,0.00000074,-0.00000144,-0.00000012,-0.00000079,
 -0.00000025,-0.00000007,0.00000089,-0.00000024,-0.00000116,0.00000049,
 0.00000058,0.00000066,-0.00000031,-0.00000152,-0.00000225,-0.00000182,
 -0.00000066,-0.00000090,0.00000096,-0.00000066,-0.00000063,0.00000020,
 0.00000057,-0.00000086,0.00000027,0.00000016,-0.00000217,-0.00000060,0
 .00000010,0.00000096,0.00000196,0.00000010,-0.00000026,0.00000007,-0.0
 0000037,0.00000127,0.00000061,-0.00000048,-0.00000021,0.00000018,0.000
 00050,-0.00000018,-0.00000036,0.00000039,-0.00000042,-0.00000006,-0.00
 000097,-0.00000057,-0.00000034,0.00000013,-0.00000069,-0.00000094,-0.0
 0000071,-0.00000013,0.00000026,-0.00000085,-0.00000023,0.00000085,-0.0
 0000106,-0.00000017,0.00000030,-0.00000079,-0.00000068,0.00000003,-0.0
 0000035,-0.00000017,0.00000016,0.00000012,-0.00000079,0.00000008,-0.00
 000021,-0.00000169,0.00000044,-0.00000075,-0.00000142,0.00000021,-0.00
 000003,0.00000042,-0.00000006,-0.00000280,0.00000413,0.00000099,-0.000
 00019,0.00000046,-0.00000054,0.00000384,-0.00000350,-0.00000042\\\@


 THERE'S NOTHING WRONG WITH FOLLOWING A TRAIN OF THOUGHT...
 AS LONG AS IT ULTIMATELY PULLS INTO THE STATION.
 Job cpu time:       0 days  9 hours 56 minutes 23.6 seconds.
 File lengths (MBytes):  RWF=   5333 Int=      0 D2E=      0 Chk=    144 Scr=      1
 Normal termination of Gaussian 09 at Wed Nov 17 02:02:48 2021.
