 Entering Gaussian System, Link 0=g09
 Input=XantPhos_5_SPE_NoPd.com
 Output=XantPhos_5_SPE_NoPd.log
 Initial command:
 /gstore/apps/gaussian/g09.e01-foss-2017a/g09/l1.exe "/local/29510745/Gau-10872.inp" -scrdir="/local/29510745/"
 Entering Link 1 = /gstore/apps/gaussian/g09.e01-foss-2017a/g09/l1.exe PID=     10873.
  
 Copyright (c) 1988,1990,1992,1993,1995,1998,2003,2009,2015,
            Gaussian, Inc.  All Rights Reserved.
  
 This is part of the Gaussian(R) 09 program.  It is based on
 the Gaussian(R) 03 system (copyright 2003, Gaussian, Inc.),
 the Gaussian(R) 98 system (copyright 1998, Gaussian, Inc.),
 the Gaussian(R) 94 system (copyright 1995, Gaussian, Inc.),
 the Gaussian 92(TM) system (copyright 1992, Gaussian, Inc.),
 the Gaussian 90(TM) system (copyright 1990, Gaussian, Inc.),
 the Gaussian 88(TM) system (copyright 1988, Gaussian, Inc.),
 the Gaussian 86(TM) system (copyright 1986, Carnegie Mellon
 University), and the Gaussian 82(TM) system (copyright 1983,
 Carnegie Mellon University). Gaussian is a federally registered
 trademark of Gaussian, Inc.
  
 This software contains proprietary and confidential information,
 including trade secrets, belonging to Gaussian, Inc.
  
 This software is provided under written license and may be
 used, copied, transmitted, or stored only in accord with that
 written license.
  
 The following legend is applicable only to US Government
 contracts under FAR:
  
                    RESTRICTED RIGHTS LEGEND
  
 Use, reproduction and disclosure by the US Government is
 subject to restrictions as set forth in subparagraphs (a)
 and (c) of the Commercial Computer Software - Restricted
 Rights clause in FAR 52.227-19.
  
 Gaussian, Inc.
 340 Quinnipiac St., Bldg. 40, Wallingford CT 06492
  
  
 ---------------------------------------------------------------
 Warning -- This program may not be used in any manner that
 competes with the business of Gaussian, Inc. or will provide
 assistance to any competitor of Gaussian, Inc.  The licensee
 of this program is prohibited from giving any competitor of
 Gaussian, Inc. access to this program.  By using this program,
 the user acknowledges that Gaussian, Inc. is engaged in the
 business of creating and licensing software in the field of
 computational chemistry and represents and warrants to the
 licensee that it is not a competitor of Gaussian, Inc. and that
 it will not use this program in any manner prohibited above.
 ---------------------------------------------------------------
  

 Cite this work as:
 Gaussian 09, Revision E.01,
 M. J. Frisch, G. W. Trucks, H. B. Schlegel, G. E. Scuseria, 
 M. A. Robb, J. R. Cheeseman, G. Scalmani, V. Barone, B. Mennucci, 
 G. A. Petersson, H. Nakatsuji, M. Caricato, X. Li, H. P. Hratchian, 
 A. F. Izmaylov, J. Bloino, G. Zheng, J. L. Sonnenberg, M. Hada, 
 M. Ehara, K. Toyota, R. Fukuda, J. Hasegawa, M. Ishida, T. Nakajima, 
 Y. Honda, O. Kitao, H. Nakai, T. Vreven, J. A. Montgomery, Jr., 
 J. E. Peralta, F. Ogliaro, M. Bearpark, J. J. Heyd, E. Brothers, 
 K. N. Kudin, V. N. Staroverov, T. Keith, R. Kobayashi, J. Normand, 
 K. Raghavachari, A. Rendell, J. C. Burant, S. S. Iyengar, J. Tomasi, 
 M. Cossi, N. Rega, J. M. Millam, M. Klene, J. E. Knox, J. B. Cross, 
 V. Bakken, C. Adamo, J. Jaramillo, R. Gomperts, R. E. Stratmann, 
 O. Yazyev, A. J. Austin, R. Cammi, C. Pomelli, J. W. Ochterski, 
 R. L. Martin, K. Morokuma, V. G. Zakrzewski, G. A. Voth, 
 P. Salvador, J. J. Dannenberg, S. Dapprich, A. D. Daniels, 
 O. Farkas, J. B. Foresman, J. V. Ortiz, J. Cioslowski, 
 and D. J. Fox, Gaussian, Inc., Wallingford CT, 2013.
 
 ******************************************
 Gaussian 09:  ES64L-G09RevE.01 30-Nov-2015
                12-Feb-2022 
 ******************************************
 %nprocs=28
 Will use up to   28 processors via shared memory.
 %mem=128GB
 %chk=XantPhos_5_SPE_NoPd.chk
 ----------------------------------------------------------------------
 # PBE1PBE/def2TZVP int=(grid=ultrafine) empiricaldispersion=GD3BJ nmr=
 giao
 ----------------------------------------------------------------------
 1/38=1/1;
 2/12=2,17=6,18=5,40=1/2;
 3/5=44,7=101,11=2,16=1,25=1,30=1,74=-13,75=-5,124=41/1,2,8,3;
 4//1;
 5/5=2,38=5/2;
 8/6=1,10=90,11=11/1;
 10/13=100,45=16/2;
 6/7=2,8=2,9=2,10=2,28=1/1;
 99/9=1/99;
 ----------------
 XantPhos_5 title
 ----------------
 Symbolic Z-matrix:
 Charge =  0 Multiplicity = 1
 P                    -1.46206   1.49441  -3.66951 
 C                    -2.07365   1.65876  -1.9221 
 C                    -3.43533   1.52344  -1.5786 
 C                    -3.83783   1.62083  -0.24041 
 C                    -2.90605   1.89204   0.77803 
 C                    -1.55307   2.1002    0.47337 
 C                    -1.18842   1.97772  -0.88003 
 O                     0.1265    2.18048  -1.22252 
 C                    -0.44708   2.5218    1.46523 
 C                    -0.8206    2.18003   2.91557 
 C                    -0.24417   4.05842   1.33221 
 C                    -1.89401  -0.19389  -4.24784 
 C                    -2.78771  -1.06152  -3.599 
 C                    -3.14165  -2.2769   -4.20115 
 C                    -2.61426  -2.6291   -5.45117 
 C                    -1.70777  -1.77231  -6.09411 
 C                    -1.34025  -0.56273  -5.49266 
 C                    -2.72986   2.53608  -4.50792 
 C                    -3.66909   1.99639  -5.40351 
 C                    -4.71709   4.17849  -5.62537 
 C                    -4.65935   2.82057  -5.96034 
 C                    -3.77733   4.71891  -4.73327 
 C                    -2.78354   3.90649  -4.18046 
 H                    -4.17596   1.34811  -2.36538 
 H                    -3.25248   1.96558   1.81324 
 H                    -4.89463   1.49759   0.01529 
 H                    -0.97726   1.09673   3.05259 
 H                    -1.74042   2.70889   3.21481 
 H                     0.03616   4.33634   0.30356 
 H                    -1.17517   4.58857   1.59663 
 H                    -3.63401   0.93625  -5.66839 
 H                    -5.48982   4.81939  -6.06238 
 H                    -3.80813   5.7831   -4.47878 
 H                    -2.03519   4.33664  -3.50902 
 H                    -3.19343  -0.80114  -2.61777 
 H                    -3.83018  -2.95395  -3.68493 
 H                    -2.90093  -3.57614  -5.91997 
 H                    -1.28219  -2.04691  -7.06477 
 H                    -0.62608   0.11013  -5.98279 
 P                     1.71913   0.30673  -2.63289 
 C                     2.07729   0.88738  -0.91523 
 C                     3.0804    0.41523  -0.05226 
 C                     2.97641   0.65146   1.32738 
 C                     1.85506   1.30114   1.87242 
 C                     0.8544    1.821     1.03432 
 C                     1.05223   1.656    -0.34244 
 C                     0.65623  -1.16992  -2.25927 
 C                    -0.0561   -1.32887  -1.05639 
 C                    -0.83234  -2.47694  -0.83817 
 C                    -0.9      -3.48013  -1.81204 
 C                    -0.19977  -3.3244   -3.01801 
 C                     0.56538  -2.17674  -3.24455 
 C                     3.21601  -0.55523  -3.2668 
 C                     3.70396  -1.6884   -2.57908 
 C                     5.43044  -1.97563  -4.26165 
 C                     4.81532  -2.38472  -3.06908 
 C                     4.92888  -0.87061  -4.96232 
 C                     3.82736  -0.15722  -4.4694 
 H                     3.92137  -0.1574   -0.45301 
 H                     1.76639   1.39653   2.95866 
 H                     3.76169   0.28519   1.9957 
 H                    -0.02685   2.50876   3.60614 
 H                     0.5596    4.39183   2.01063 
 H                     3.19883  -2.04188  -1.67455 
 H                     3.45188   0.72311  -4.99717 
 H                     0.00877  -0.57479  -0.26791 
 H                    -1.37353  -2.58771   0.10741 
 H                    -1.49862  -4.37988  -1.63618 
 H                    -0.25735  -4.09557  -3.79223 
 H                     1.11075  -2.0672   -4.18676 
 H                     5.39767  -0.55314  -5.8992 
 H                     6.29493  -2.52544  -4.64813 
 H                     5.19229  -3.25632  -2.52397 
 H                    -5.38622   2.39287  -6.65868 
 
 Stoichiometry    C39H32OP2
 Framework group  C1[X(C39H32OP2)]
 Deg. of freedom   216
 Full point group                 C1      NOp   1
 Largest Abelian subgroup         C1      NOp   1
 Largest concise Abelian subgroup C1      NOp   1
                         Standard orientation:                         
 ---------------------------------------------------------------------
 Center     Atomic      Atomic             Coordinates (Angstroms)
 Number     Number       Type             X           Y           Z
 ---------------------------------------------------------------------
      1         15           0       -1.703742   -0.730833   -0.794689
      2          6           0       -1.922821    0.865844    0.131132
      3          6           0       -2.981260    1.077391    1.039656
      4          6           0       -3.079143    2.287425    1.738574
      5          6           0       -2.153821    3.324902    1.523143
      6          6           0       -1.125629    3.182525    0.580135
      7          6           0       -1.053513    1.946379   -0.088000
      8          8           0       -0.064712    1.767685   -1.024898
      9          6           0       -0.118116    4.272762    0.154618
     10          6           0        0.022557    5.367974    1.222571
     11          6           0       -0.628855    4.906318   -1.171204
     12          6           0       -1.486110   -2.063598    0.449402
     13          6           0       -1.753020   -1.933033    1.822061
     14          6           0       -1.675149   -3.055594    2.658004
     15          6           0       -1.339091   -4.310237    2.131064
     16          6           0       -1.055025   -4.440701    0.763049
     17          6           0       -1.118667   -3.321340   -0.075335
     18          6           0       -3.446509   -0.978902   -1.339263
     19          6           0       -4.236002   -2.039553   -0.862586
     20          6           0       -6.138785   -1.191152   -2.115073
     21          6           0       -5.580063   -2.142516   -1.253557
     22          6           0       -5.349907   -0.133184   -2.594067
     23          6           0       -4.008697   -0.027963   -2.215497
     24          1           0       -3.728986    0.292166    1.190081
     25          1           0       -2.259469    4.259501    2.082102
     26          1           0       -3.895198    2.433249    2.452840
     27          1           0        0.380284    4.958882    2.182539
     28          1           0       -0.943537    5.870896    1.392915
     29          1           0       -0.730364    4.147055   -1.963137
     30          1           0       -1.613014    5.379256   -1.011519
     31          1           0       -3.809314   -2.785404   -0.186625
     32          1           0       -7.187184   -1.274760   -2.419544
     33          1           0       -5.776898    0.605623   -3.279675
     34          1           0       -3.389037    0.780367   -2.613633
     35          1           0       -2.002676   -0.955854    2.243960
     36          1           0       -1.873477   -2.944911    3.729162
     37          1           0       -1.287851   -5.184785    2.787865
     38          1           0       -0.779537   -5.415222    0.346971
     39          1           0       -0.890314   -3.410831   -1.144374
     40         15           0        1.821288   -0.348247   -0.976132
     41          6           0        2.266402    1.440960   -0.848054
     42          6           0        3.538545    1.982681   -0.598960
     43          6           0        3.651747    3.301398   -0.131855
     44          6           0        2.511774    4.074437    0.150015
     45          6           0        1.226818    3.577667   -0.125831
     46          6           0        1.165898    2.297642   -0.691211
     47          6           0        1.606419   -0.756883    0.822952
     48          6           0        1.317152    0.205160    1.808034
     49          6           0        1.178008   -0.174851    3.151336
     50          6           0        1.333260   -1.514386    3.526746
     51          6           0        1.612632   -2.480902    2.548618
     52          6           0        1.740392   -2.108540    1.207378
     53          6           0        3.361503   -1.295745   -1.315921
     54          6           0        4.427133   -1.236938   -0.390658
     55          6           0        5.689695   -2.817860   -1.732634
     56          6           0        5.590556   -1.984689   -0.608381
     57          6           0        4.621344   -2.901894   -2.635489
     58          6           0        3.459864   -2.143129   -2.434254
     59          1           0        4.431881    1.368451   -0.741858
     60          1           0        2.633806    5.068593    0.590075
     61          1           0        4.644600    3.720781    0.057454
     62          1           0        0.729712    6.144527    0.888057
     63          1           0        0.082369    5.674696   -1.519373
     64          1           0        4.336681   -0.626626    0.513566
     65          1           0        2.636591   -2.183074   -3.151978
     66          1           0        1.225215    1.261632    1.543500
     67          1           0        0.960972    0.588616    3.905844
     68          1           0        1.233799   -1.807817    4.576900
     69          1           0        1.721432   -3.533086    2.828819
     70          1           0        1.962362   -2.869590    0.453235
     71          1           0        4.688243   -3.558576   -3.508750
     72          1           0        6.596995   -3.408144   -1.898078
     73          1           0        6.415229   -1.925330    0.109480
     74          1           0       -6.187909   -2.972810   -0.879289
 ---------------------------------------------------------------------
 Rotational constants (GHZ):      0.0976394      0.0790225      0.0578138
 Standard basis: def2TZVP (5D, 7F)
 There are  1716 symmetry adapted cartesian basis functions of A   symmetry.
 There are  1506 symmetry adapted basis functions of A   symmetry.
  1506 basis functions,  2434 primitive gaussians,  1716 cartesian basis functions
   152 alpha electrons      152 beta electrons
       nuclear repulsion energy      5349.7869303297 Hartrees.
 NAtoms=   74 NActive=   74 NUniq=   74 SFac= 1.00D+00 NAtFMM=   60 NAOKFM=T Big=T
 Integral buffers will be    131072 words long.
 Raffenetti 2 integral format.
 Two-electron integral symmetry is turned on.
 Nuclear repulsion after empirical dispersion term =     5349.6625581359 Hartrees.
 One-electron integrals computed using PRISM.
   1 Symmetry operations used in ECPInt.
 ECPInt:  NShTT=  176715 NPrTT=  548629 LenC2=  140024 LenP2D=  287694.
 LDataN:  DoStor=T MaxTD1= 6 Len=  172
 NBasis=  1506 RedAO= T EigKep=  4.15D-06  NBF=  1506
 NBsUse=  1506 1.00D-06 EigRej= -1.00D+00 NBFU=  1506
 ExpMin= 9.04D-02 ExpMax= 5.24D+04 ExpMxC= 1.79D+03 IAcc=3 IRadAn=         5 AccDes= 0.00D+00
 Harris functional with IExCor= 1009 and IRadAn=       5 diagonalized for initial guess.
 HarFok:  IExCor= 1009 AccDes= 0.00D+00 IRadAn=         5 IDoV= 1 UseB2=F ITyADJ=14
 ICtDFT=  3500011 ScaDFX=  1.000000  1.000000  1.000000  1.000000
 FoFCou: FMM=F IPFlag=           0 FMFlag=      100000 FMFlg1=        2001
         NFxFlg=           0 DoJE=T BraDBF=F KetDBF=T FulRan=T
         wScrn=  0.000000 ICntrl=     500 IOpCl=  0 I1Cent=   200000004 NGrid=           0
         NMat0=    1 NMatS0=      1 NMatT0=    0 NMatD0=    1 NMtDS0=    0 NMtDT0=    0
 Petite list used in FoFCou.
 Requested convergence on RMS density matrix=1.00D-08 within 128 cycles.
 Requested convergence on MAX density matrix=1.00D-06.
 Requested convergence on             energy=1.00D-06.
 No special actions if energy rises.
 Integral accuracy reduced to 1.0D-05 until final iterations.
 Problem detected with inexpensive integrals.
 Switching to full accuracy and repeating last cycle.
 SCF Done:  E(RPBE1PBE) =  -2261.88737683     A.U. after   15 cycles
            NFock= 15  Conv=0.63D-08     -V/T= 2.0048
 DoSCS=F DFT=T ScalE2(SS,OS)=  1.000000  1.000000
 Range of M.O.s used for correlation:     1  1506
 NBasis=  1506 NAE=   152 NBE=   152 NFC=     0 NFV=     0
 NROrb=   1506 NOA=   152 NOB=   152 NVA=  1354 NVB=  1354

 **** Warning!!: The largest alpha MO coefficient is  0.45900390D+02

          Differentiating once with respect to magnetic field using GIAOs.
          Electric field/nuclear overlap derivatives assumed to be zero.
 FoFCou: FMM=F IPFlag=           0 FMFlag=      100000 FMFlg1=        2001
         NFxFlg=           0 DoJE=F BraDBF=F KetDBF=T FulRan=T
         wScrn=  0.000000 ICntrl=    6100 IOpCl=  0 I1Cent=           7 NGrid=          74
         NMat0=    1 NMatS0=      1 NMatT0=    0 NMatD0=    1 NMtDS0=    0 NMtDT0=    0
 Symmetry not used in FoFCou.
   1 Symmetry operations used in ECPInt.
 ECPInt:  NShTT=  176715 NPrTT=  548629 LenC2=  176716 LenP2D=  548629.
 LDataN:  DoStor=T MaxTD1= 7 Len=  274
 FoFJK:  IHMeth= 1 ICntrl=    6127 DoSepK=F KAlg= 0 I1Cent=   0 FoldK=F
 IRaf=         1 NMat=   1 IRICut=       1 DoRegI=T DoRafI=F ISym2E= 0.
          There are     3 degrees of freedom in the 1st order CPHF.  IDoFFX=0 NUNeed=     3.
      3 vectors produced by pass  0 Test12= 6.86D-12 3.33D-08 XBig12= 1.95D+02 1.89D+00.
 AX will form     3 AO Fock derivatives at one time.
      3 vectors produced by pass  1 Test12= 6.86D-12 3.33D-08 XBig12= 8.70D-01 1.74D-01.
      3 vectors produced by pass  2 Test12= 6.86D-12 3.33D-08 XBig12= 3.98D-03 7.53D-03.
      3 vectors produced by pass  3 Test12= 6.86D-12 3.33D-08 XBig12= 1.23D-05 6.25D-04.
      3 vectors produced by pass  4 Test12= 6.86D-12 3.33D-08 XBig12= 7.64D-08 8.52D-05.
      3 vectors produced by pass  5 Test12= 6.86D-12 3.33D-08 XBig12= 4.83D-10 7.19D-06.
      3 vectors produced by pass  6 Test12= 6.86D-12 3.33D-08 XBig12= 2.60D-12 4.86D-07.
 InvSVY:  IOpt=1 It=  1 EMax= 5.33D-15
 Solved reduced A of dimension    21 with     3 vectors.
 Calculating GIAO nuclear magnetic shielding tensors.
 SCF GIAO Magnetic shielding tensor (ppm):
      1  P    Isotropic =   321.2583   Anisotropy =    54.4848
   XX=   330.3694   YX=   -16.4217   ZX=    28.3002
   XY=   -17.9045   YY=   307.7109   ZY=   -24.1372
   XZ=   -12.2348   YZ=   -33.6258   ZZ=   325.6948
   Eigenvalues:   284.4736   321.7199   357.5815
      2  C    Isotropic =    48.4347   Anisotropy =   166.7789
   XX=    68.7616   YX=   -24.2958   ZX=    64.8323
   XY=   -31.6995   YY=     0.7198   ZY=   -44.6367
   XZ=    76.8921   YZ=   -42.6504   ZZ=    75.8227
   Eigenvalues:   -19.7417     5.4252   159.6206
      3  C    Isotropic =    39.5057   Anisotropy =   193.7520
   XX=    22.2258   YX=   -68.2368   ZX=    77.8834
   XY=   -72.9429   YY=    -5.5813   ZY=   -34.5714
   XZ=    66.9144   YZ=   -27.5199   ZZ=   101.8725
   Eigenvalues:   -67.3347    17.1781   168.6737
      4  C    Isotropic =    57.4140   Anisotropy =   173.6679
   XX=    35.1342   YX=   -20.2962   ZX=   100.0713
   XY=   -18.5804   YY=    66.6763   ZY=   -39.9742
   XZ=   102.2536   YZ=   -40.5644   ZZ=    70.4316
   Eigenvalues:   -51.0283    50.0778   173.1926
      5  C    Isotropic =    55.2429   Anisotropy =   178.5706
   XX=    89.5729   YX=   -22.2078   ZX=    60.4988
   XY=   -23.2788   YY=    -8.9453   ZY=   -72.8005
   XZ=    68.3488   YZ=   -61.3704   ZZ=    85.1011
   Eigenvalues:   -44.7045    36.1432   174.2900
      6  C    Isotropic =    45.3526   Anisotropy =   167.8908
   XX=    45.7289   YX=   -44.6495   ZX=    73.1427
   XY=   -47.7087   YY=     0.1219   ZY=   -40.2943
   XZ=    65.7112   YZ=   -17.0119   ZZ=    90.2069
   Eigenvalues:   -30.7795     9.5574   157.2798
      7  C    Isotropic =    19.1692   Anisotropy =   133.3683
   XX=     4.7273   YX=    -7.0207   ZX=    80.7035
   XY=    -9.2409   YY=    27.7814   ZY=   -29.5922
   XZ=    88.6033   YZ=   -23.2707   ZZ=    24.9989
   Eigenvalues:   -71.7655    21.1917   108.0814
      8  O    Isotropic =   140.9172   Anisotropy =   191.6594
   XX=    95.3765   YX=   -32.7455   ZX=    47.6498
   XY=   -31.9926   YY=   117.1156   ZY=   -65.8352
   XZ=    51.9123   YZ=   -75.8508   ZZ=   210.2594
   Eigenvalues:    72.0696    81.9919   268.6901
      9  C    Isotropic =   142.5382   Anisotropy =     8.3189
   XX=   142.2016   YX=     1.7458   ZX=     2.4824
   XY=    -0.7409   YY=   138.7812   ZY=    -7.6529
   XZ=     1.5310   YZ=     1.9771   ZZ=   146.6318
   Eigenvalues:   137.5841   141.9464   148.0842
     10  C    Isotropic =   162.5723   Anisotropy =    30.1838
   XX=   149.1577   YX=    -0.1547   ZX=     6.4809
   XY=     2.0252   YY=   162.4493   ZY=    13.1544
   XZ=     7.1835   YZ=     6.9585   ZZ=   176.1100
   Eigenvalues:   147.3520   157.6701   182.6949
     11  C    Isotropic =   153.6335   Anisotropy =    44.4428
   XX=   148.5107   YX=    -7.8838   ZX=     9.3550
   XY=    -4.5886   YY=   147.8181   ZY=   -17.2154
   XZ=    10.5194   YZ=   -25.8660   ZZ=   164.5718
   Eigenvalues:   133.0656   144.5730   183.2621
     12  C    Isotropic =    41.5338   Anisotropy =   210.8128
   XX=   169.5674   YX=    31.9229   ZX=    24.4090
   XY=    51.0842   YY=   -28.3148   ZY=    33.8237
   XZ=    20.7391   YZ=    30.6801   ZZ=   -16.6512
   Eigenvalues:   -56.7865    -0.6877   182.0757
     13  C    Isotropic =    46.9798   Anisotropy =   204.5701
   XX=   164.8183   YX=    63.0329   ZX=    34.8574
   XY=    48.6085   YY=   -36.1627   ZY=   -28.4316
   XZ=    33.6438   YZ=   -28.8153   ZZ=    12.2837
   Eigenvalues:   -67.6852    25.2646   183.3598
     14  C    Isotropic =    48.7766   Anisotropy =   195.2817
   XX=   164.6502   YX=    36.4791   ZX=    41.5666
   XY=    28.1892   YY=    38.5554   ZY=    -4.8155
   XZ=    41.4724   YZ=    -6.4068   ZZ=   -56.8758
   Eigenvalues:   -65.6732    33.0386   178.9644
     15  C    Isotropic =    52.8525   Anisotropy =   188.2124
   XX=   168.9483   YX=    27.2329   ZX=    21.5950
   XY=    30.5370   YY=   -18.5375   ZY=    49.9227
   XZ=    20.9951   YZ=    48.2258   ZZ=     8.1466
   Eigenvalues:   -56.5202    36.7502   178.3274
     16  C    Isotropic =    52.6298   Anisotropy =   186.5958
   XX=   160.5509   YX=    49.6534   ZX=    33.5373
   XY=    48.6574   YY=   -31.7591   ZY=   -29.4713
   XZ=    33.3094   YZ=   -28.8448   ZZ=    29.0974
   Eigenvalues:   -58.9518    39.8142   177.0269
     17  C    Isotropic =    46.0709   Anisotropy =   188.2132
   XX=   152.7430   YX=    47.6772   ZX=    44.1142
   XY=    27.7004   YY=    45.0864   ZY=   -13.6033
   XZ=    42.7934   YZ=     2.5914   ZZ=   -59.6168
   Eigenvalues:   -69.6368    36.3031   171.5464
     18  C    Isotropic =    30.8656   Anisotropy =   206.9886
   XX=   -32.1390   YX=   -45.6209   ZX=   -51.3793
   XY=   -31.6986   YY=    38.7254   ZY=    85.9142
   XZ=   -49.6761   YZ=    80.1929   ZZ=    86.0105
   Eigenvalues:   -52.2812   -23.9800   168.8581
     19  C    Isotropic =    48.1970   Anisotropy =   191.1172
   XX=    36.1347   YX=    -1.5668   ZX=   -47.5054
   XY=    -1.1761   YY=    31.6590   ZY=    99.6584
   XZ=   -60.0035   YZ=   111.3268   ZZ=    76.7974
   Eigenvalues:   -65.1408    34.1234   175.6085
     20  C    Isotropic =    54.6209   Anisotropy =   181.5492
   XX=   -36.7928   YX=   -28.3949   ZX=   -52.2703
   XY=   -26.3663   YY=    81.5397   ZY=    57.5363
   XZ=   -51.5498   YZ=    55.1389   ZZ=   119.1159
   Eigenvalues:   -53.3498    41.5589   175.6537
     21  C    Isotropic =    52.4046   Anisotropy =   182.4637
   XX=    19.4494   YX=   -63.9969   ZX=    -5.0861
   XY=   -62.8509   YY=    27.2535   ZY=    82.7984
   XZ=    -9.3019   YZ=    86.0339   ZZ=   110.5109
   Eigenvalues:   -59.8972    43.0638   174.0471
     22  C    Isotropic =    52.5733   Anisotropy =   183.4418
   XX=    37.4560   YX=     7.8724   ZX=   -50.7229
   XY=     5.8729   YY=    36.9691   ZY=   100.9172
   XZ=   -51.3381   YZ=   104.0823   ZZ=    83.2947
   Eigenvalues:   -60.0376    42.8896   174.8678
     23  C    Isotropic =    48.0581   Anisotropy =   185.0612
   XX=    20.5237   YX=   -53.5642   ZX=    -7.4677
   XY=   -71.0063   YY=    22.0745   ZY=    82.8515
   XZ=   -13.9024   YZ=    93.1978   ZZ=   101.5761
   Eigenvalues:   -63.3765    36.1186   171.4322
     24  H    Isotropic =    24.3528   Anisotropy =     9.8640
   XX=    23.7157   YX=    -4.1643   ZX=    -3.5783
   XY=    -1.2780   YY=    24.2212   ZY=     5.9341
   XZ=    -0.2012   YZ=     3.6272   ZZ=    25.1214
   Eigenvalues:    19.6848    22.4447    30.9288
     25  H    Isotropic =    23.7652   Anisotropy =     8.8529
   XX=    25.7227   YX=     2.0763   ZX=    -4.1285
   XY=     3.7151   YY=    23.1459   ZY=    -0.8818
   XZ=    -4.6932   YZ=     0.9881   ZZ=    22.4269
   Eigenvalues:    18.6412    22.9871    29.6671
     26  H    Isotropic =    24.2317   Anisotropy =     5.3197
   XX=    23.5291   YX=     0.5063   ZX=    -2.0642
   XY=     1.7094   YY=    26.8697   ZY=     2.3050
   XZ=    -1.3992   YZ=     2.0386   ZZ=    22.2965
   Eigenvalues:    20.1983    24.7187    27.7782
     27  H    Isotropic =    29.8191   Anisotropy =     9.0052
   XX=    27.4928   YX=     0.8477   ZX=     2.0470
   XY=     0.3398   YY=    27.0510   ZY=     0.8934
   XZ=     1.7236   YZ=     2.9414   ZZ=    34.9137
   Eigenvalues:    26.5598    27.0750    35.8226
     28  H    Isotropic =    29.2496   Anisotropy =     9.0491
   XX=    30.1399   YX=    -2.3286   ZX=    -2.8393
   XY=    -2.5040   YY=    31.2002   ZY=     3.2304
   XZ=    -2.9625   YZ=     3.2795   ZZ=    26.4086
   Eigenvalues:    24.2615    28.2049    35.2823
     29  H    Isotropic =    29.2612   Anisotropy =     7.1042
   XX=    23.8003   YX=    -1.0922   ZX=     3.1875
   XY=    -0.7216   YY=    31.0023   ZY=    -0.2197
   XZ=     3.1191   YZ=     0.0871   ZZ=    32.9809
   Eigenvalues:    22.7348    31.0515    33.9973
     30  H    Isotropic =    30.1650   Anisotropy =     9.6382
   XX=    31.6402   YX=    -4.9685   ZX=     1.4847
   XY=    -3.3928   YY=    30.7972   ZY=    -1.1596
   XZ=     2.8312   YZ=    -3.4849   ZZ=    28.0575
   Eigenvalues:    26.6865    27.2180    36.5905
     31  H    Isotropic =    25.0452   Anisotropy =    16.2471
   XX=    34.0031   YX=     1.6501   ZX=     6.0469
   XY=     4.3984   YY=    21.3365   ZY=     0.9235
   XZ=     2.6619   YZ=     0.1918   ZZ=    19.7960
   Eigenvalues:    18.5315    20.7275    35.8766
     32  H    Isotropic =    24.2071   Anisotropy =     3.5144
   XX=    24.7624   YX=     0.7990   ZX=     1.2947
   XY=     0.8325   YY=    24.7772   ZY=    -2.5882
   XZ=     1.0017   YZ=    -2.3711   ZZ=    23.0816
   Eigenvalues:    20.8072    25.2639    26.5500
     33  H    Isotropic =    24.0799   Anisotropy =     6.3603
   XX=    27.2999   YX=     1.9750   ZX=     1.9501
   XY=     1.8518   YY=    22.6824   ZY=    -1.0904
   XZ=     1.5826   YZ=    -0.5729   ZZ=    22.2574
   Eigenvalues:    20.6145    23.3051    28.3201
     34  H    Isotropic =    23.8729   Anisotropy =    11.9565
   XX=    26.5174   YX=    -1.1051   ZX=     6.7783
   XY=    -1.1220   YY=    19.9211   ZY=    -1.3229
   XZ=     4.7820   YZ=    -0.5380   ZZ=    25.1801
   Eigenvalues:    19.7375    20.0372    31.8439
     35  H    Isotropic =    24.7933   Anisotropy =     8.8426
   XX=    23.7691   YX=    -2.5483   ZX=    -0.1416
   XY=     1.1952   YY=    24.3367   ZY=    -3.7379
   XZ=    -0.6505   YZ=    -6.8473   ZZ=    26.2740
   Eigenvalues:    19.7751    23.9164    30.6883
     36  H    Isotropic =    24.2680   Anisotropy =     5.6703
   XX=    22.8769   YX=     0.4430   ZX=    -1.4262
   XY=     0.4615   YY=    27.0186   ZY=    -1.8757
   XZ=    -0.7400   YZ=    -2.3458   ZZ=    22.9086
   Eigenvalues:    21.4891    23.2667    28.0483
     37  H    Isotropic =    24.0612   Anisotropy =     2.9528
   XX=    21.6270   YX=     0.7147   ZX=    -1.6335
   XY=     0.1778   YY=    25.5199   ZY=     0.6079
   XZ=    -1.5214   YZ=     0.6035   ZZ=    25.0367
   Eigenvalues:    20.9204    25.2335    26.0297
     38  H    Isotropic =    23.9649   Anisotropy =     5.0256
   XX=    21.1432   YX=     1.1032   ZX=    -0.2912
   XY=     0.6224   YY=    25.6327   ZY=    -1.6442
   XZ=    -1.2388   YZ=    -1.7657   ZZ=    25.1187
   Eigenvalues:    20.9277    23.6516    27.3153
     39  H    Isotropic =    23.4093   Anisotropy =     7.4946
   XX=    22.8101   YX=    -1.4957   ZX=     0.7364
   XY=    -0.9056   YY=    28.1283   ZY=    -0.2499
   XZ=    -1.4388   YZ=    -0.7481   ZZ=    19.2894
   Eigenvalues:    19.2106    22.6116    28.4057
     40  P    Isotropic =   296.9537   Anisotropy =    53.0290
   XX=   293.9229   YX=     0.5691   ZX=    41.2997
   XY=    14.3181   YY=   265.5370   ZY=     0.2490
   XZ=   -29.5269   YZ=    -1.7392   ZZ=   331.4012
   Eigenvalues:   263.6355   294.9193   332.3064
     41  C    Isotropic =    48.4826   Anisotropy =   162.7068
   XX=    11.5347   YX=    -2.5329   ZX=    -9.9352
   XY=    -2.1388   YY=   -16.1266   ZY=   -27.0060
   XZ=     3.6708   YZ=   -41.9349   ZZ=   150.0398
   Eigenvalues:   -23.2362    11.7302   156.9538
     42  C    Isotropic =    47.8389   Anisotropy =   188.9040
   XX=   -30.9202   YX=    38.5476   ZX=    -0.1412
   XY=    49.1118   YY=    12.6493   ZY=   -48.7440
   XZ=   -13.3746   YZ=   -32.8631   ZZ=   161.7875
   Eigenvalues:   -59.2827    29.0244   173.7748
     43  C    Isotropic =    55.0350   Anisotropy =   176.9674
   XX=   -38.1034   YX=   -30.7289   ZX=   -21.0043
   XY=   -27.2811   YY=    52.4205   ZY=   -47.9732
   XZ=   -35.8391   YZ=   -52.4749   ZZ=   150.7879
   Eigenvalues:   -55.5051    47.5968   173.0133
     44  C    Isotropic =    55.6871   Anisotropy =   176.6689
   XX=    37.9423   YX=    -1.7128   ZX=    -6.8649
   XY=    -6.8575   YY=    -9.1744   ZY=   -79.2362
   XZ=   -19.2861   YZ=   -78.9312   ZZ=   138.2933
   Eigenvalues:   -44.5843    38.1792   173.4663
     45  C    Isotropic =    43.9480   Anisotropy =   167.0839
   XX=   -18.5071   YX=    22.9215   ZX=     5.6543
   XY=    13.6022   YY=    16.1875   ZY=   -69.3189
   XZ=     5.5477   YZ=   -39.2066   ZZ=   134.1635
   Eigenvalues:   -31.9628     8.4695   155.3373
     46  C    Isotropic =    20.7794   Anisotropy =   129.0836
   XX=   -56.6055   YX=   -35.2916   ZX=   -28.0393
   XY=   -31.6181   YY=    21.4506   ZY=   -35.8699
   XZ=   -11.1613   YZ=   -19.0191   ZZ=    97.4932
   Eigenvalues:   -73.6231    29.1262   106.8352
     47  C    Isotropic =    32.3751   Anisotropy =   203.1613
   XX=   159.2623   YX=    16.1793   ZX=    33.9223
   XY=    19.8656   YY=   -18.9742   ZY=    13.6402
   XZ=    39.8478   YZ=     6.7375   ZZ=   -43.1627
   Eigenvalues:   -51.2352   -19.4554   167.8160
     48  C    Isotropic =    51.4846   Anisotropy =   194.3966
   XX=   175.0437   YX=    21.5383   ZX=    19.4579
   XY=    26.3128   YY=   -53.2598   ZY=    26.1341
   XZ=    21.9419   YZ=    17.7681   ZZ=    32.6701
   Eigenvalues:   -60.0283    33.3999   181.0824
     49  C    Isotropic =    55.2137   Anisotropy =   183.1108
   XX=   167.6848   YX=    33.5819   ZX=    32.9719
   XY=    32.3764   YY=     1.3869   ZY=   -45.7226
   XZ=    32.7476   YZ=   -49.1852   ZZ=    -3.4306
   Eigenvalues:   -58.1285    46.4820   177.2876
     50  C    Isotropic =    55.2932   Anisotropy =   185.1191
   XX=   171.1136   YX=    20.6445   ZX=    30.7381
   XY=    18.2137   YY=    37.4417   ZY=    25.1861
   XZ=    28.0017   YZ=    23.1484   ZZ=   -42.6757
   Eigenvalues:   -51.8728    39.0465   178.7059
     51  C    Isotropic =    52.8192   Anisotropy =   192.7042
   XX=   174.7579   YX=    27.1906   ZX=    18.3631
   XY=    31.5656   YY=   -48.6640   ZY=    26.7693
   XZ=    15.1687   YZ=    25.9126   ZZ=    32.3638
   Eigenvalues:   -58.8799    36.0489   181.2887
     52  C    Isotropic =    46.5866   Anisotropy =   201.6080
   XX=   170.6040   YX=    37.9928   ZX=    30.2467
   XY=    39.7006   YY=   -17.3612   ZY=   -46.4702
   XZ=    30.7292   YZ=   -32.2424   ZZ=   -13.4829
   Eigenvalues:   -65.0895    23.8574   180.9920
     53  C    Isotropic =    37.4086   Anisotropy =   206.8186
   XX=   -11.5256   YX=    70.0568   ZX=   -39.2846
   XY=    66.3282   YY=    77.1546   ZY=   -89.0438
   XZ=   -25.7908   YZ=   -77.0474   ZZ=    46.5967
   Eigenvalues:   -50.9442   -12.1177   175.2876
     54  C    Isotropic =    36.2838   Anisotropy =   197.0767
   XX=    48.9450   YX=    45.3636   ZX=   -29.4020
   XY=    57.7559   YY=    73.7918   ZY=   -97.7889
   XZ=   -31.1150   YZ=   -98.8829   ZZ=   -13.8853
   Eigenvalues:   -77.7775    18.9608   167.6683
     55  C    Isotropic =    50.4530   Anisotropy =   190.0964
   XX=    -8.4580   YX=    85.9593   ZX=   -16.3979
   XY=    82.6575   YY=    88.2277   ZY=   -64.4812
   XZ=   -15.9200   YZ=   -66.1552   ZZ=    71.5894
   Eigenvalues:   -60.4732    34.6484   177.1840
     56  C    Isotropic =    51.5795   Anisotropy =   184.9392
   XX=     6.9454   YX=    33.1964   ZX=   -79.9469
   XY=    36.3643   YY=   115.8819   ZY=   -58.3396
   XZ=   -77.1955   YZ=   -57.4334   ZZ=    31.9111
   Eigenvalues:   -60.9594    40.8255   174.8723
     57  C    Isotropic =    52.4907   Anisotropy =   184.5388
   XX=    63.0832   YX=    45.7116   ZX=   -21.0501
   XY=    46.2436   YY=    81.4997   ZY=   -96.3574
   XZ=   -24.9596   YZ=  -102.8003   ZZ=    12.8892
   Eigenvalues:   -58.7071    40.6626   175.5165
     58  C    Isotropic =    41.6044   Anisotropy =   183.5623
   XX=    -3.7787   YX=    32.5334   ZX=   -85.6730
   XY=    35.9833   YY=   101.7431   ZY=   -58.8329
   XZ=   -81.6032   YZ=   -52.2194   ZZ=    26.8488
   Eigenvalues:   -74.0571    34.8910   163.9793
     59  H    Isotropic =    23.7169   Anisotropy =    10.3806
   XX=    24.3099   YX=     4.0582   ZX=    -0.4013
   XY=     1.8447   YY=    28.9804   ZY=     3.0160
   XZ=     1.2931   YZ=     0.3481   ZZ=    17.8606
   Eigenvalues:    17.6117    22.9018    30.6373
     60  H    Isotropic =    23.7039   Anisotropy =     8.8863
   XX=    29.5988   YX=     0.7879   ZX=    -0.5428
   XY=    -1.5922   YY=    22.1087   ZY=     0.9642
   XZ=     0.1661   YZ=     2.3832   ZZ=    19.4043
   Eigenvalues:    18.6048    22.8788    29.6282
     61  H    Isotropic =    23.9483   Anisotropy =     5.4250
   XX=    24.9694   YX=     0.0141   ZX=    -0.9033
   XY=    -0.6684   YY=    26.9524   ZY=     2.3857
   XZ=    -1.3001   YZ=     1.3855   ZZ=    19.9231
   Eigenvalues:    19.2763    25.0037    27.5649
     62  H    Isotropic =    29.2720   Anisotropy =     9.2362
   XX=    29.4150   YX=     3.3580   ZX=    -0.7381
   XY=     3.7949   YY=    33.1328   ZY=     1.4620
   XZ=    -0.7617   YZ=     2.0455   ZZ=    25.2681
   Eigenvalues:    24.3299    28.0567    35.4294
     63  H    Isotropic =    30.0754   Anisotropy =    10.0363
   XX=    27.3739   YX=     1.4700   ZX=    -0.6206
   XY=     2.1256   YY=    32.6290   ZY=    -3.3444
   XZ=    -1.0487   YZ=    -6.2431   ZZ=    30.2234
   Eigenvalues:    26.2267    27.2332    36.7663
     64  H    Isotropic =    24.0459   Anisotropy =    12.9950
   XX=    31.7877   YX=    -1.8369   ZX=    -2.1745
   XY=    -3.9760   YY=    21.7522   ZY=    -2.1658
   XZ=     3.9087   YZ=    -2.1213   ZZ=    18.5978
   Eigenvalues:    17.4909    21.9376    32.7092
     65  H    Isotropic =    22.8605   Anisotropy =     9.2803
   XX=    22.6367   YX=    -2.6852   ZX=    -3.4845
   XY=    -2.9483   YY=    23.4132   ZY=     3.4454
   XZ=    -2.2125   YZ=     3.6602   ZZ=    22.5318
   Eigenvalues:    19.3264    20.2078    29.0474
     66  H    Isotropic =    26.0962   Anisotropy =     9.5221
   XX=    23.0561   YX=    -0.1347   ZX=    -0.6851
   XY=    -0.5883   YY=    24.3722   ZY=    -2.2170
   XZ=    -1.2122   YZ=    -4.7816   ZZ=    30.8603
   Eigenvalues:    22.2092    23.6352    32.4442
     67  H    Isotropic =    25.1526   Anisotropy =     7.9165
   XX=    21.5268   YX=     0.2910   ZX=     1.6571
   XY=    -0.2096   YY=    25.6194   ZY=    -3.0093
   XZ=     0.9302   YZ=    -3.0978   ZZ=    28.3114
   Eigenvalues:    21.1793    23.8482    30.4302
     68  H    Isotropic =    24.8668   Anisotropy =     2.8906
   XX=    22.3082   YX=    -0.7125   ZX=     2.3223
   XY=    -0.3833   YY=    26.7128   ZY=     0.4746
   XZ=     0.5490   YZ=    -0.3306   ZZ=    25.5793
   Eigenvalues:    21.7096    26.0969    26.7938
     69  H    Isotropic =    25.3970   Anisotropy =     3.5984
   XX=    25.9680   YX=    -1.5213   ZX=     1.5007
   XY=     0.5479   YY=    22.9319   ZY=    -0.4965
   XZ=     0.1230   YZ=    -0.7235   ZZ=    27.2911
   Eigenvalues:    22.8020    25.5931    27.7959
     70  H    Isotropic =    25.6290   Anisotropy =    11.2425
   XX=    27.9815   YX=     0.2428   ZX=    -3.9801
   XY=     3.7934   YY=    24.3311   ZY=    -5.8303
   XZ=    -2.5664   YZ=    -5.9860   ZZ=    24.5743
   Eigenvalues:    18.4569    25.3061    33.1240
     71  H    Isotropic =    23.6583   Anisotropy =     5.7197
   XX=    26.5012   YX=    -2.3824   ZX=     0.4774
   XY=    -2.1247   YY=    22.2154   ZY=     1.3276
   XZ=     0.8442   YZ=     1.0966   ZZ=    22.2583
   Eigenvalues:    20.2885    23.2150    27.4715
     72  H    Isotropic =    23.7704   Anisotropy =     3.8426
   XX=    24.3277   YX=    -0.7557   ZX=     0.8981
   XY=    -0.5471   YY=    22.4067   ZY=     2.2948
   XZ=     1.6868   YZ=     2.2460   ZZ=    24.5769
   Eigenvalues:    20.5562    24.4230    26.3322
     73  H    Isotropic =    24.0107   Anisotropy =     6.8788
   XX=    26.1166   YX=    -2.8522   ZX=    -1.7043
   XY=    -2.7103   YY=    23.5390   ZY=     2.2495
   XZ=    -0.3836   YZ=     2.1035   ZZ=    22.3764
   Eigenvalues:    20.5120    22.9236    28.5965
     74  H    Isotropic =    24.2653   Anisotropy =     7.4212
   XX=    27.7458   YX=    -0.1922   ZX=     3.2661
   XY=     0.0932   YY=    22.7243   ZY=    -1.4265
   XZ=     2.9623   YZ=    -1.0383   ZZ=    22.3259
   Eigenvalues:    20.3821    23.2011    29.2128
 End of Minotr F.D. properties file   721 does not exist.
 End of Minotr F.D. properties file   722 does not exist.
 End of Minotr F.D. properties file   788 does not exist.

 **********************************************************************

            Population analysis using the SCF density.

 **********************************************************************

 Orbital symmetries:
       Occupied  (A) (A) (A) (A) (A) (A) (A) (A) (A) (A) (A) (A)
                 (A) (A) (A) (A) (A) (A) (A) (A) (A) (A) (A) (A)
                 (A) (A) (A) (A) (A) (A) (A) (A) (A) (A) (A) (A)
                 (A) (A) (A) (A) (A) (A) (A) (A) (A) (A) (A) (A)
                 (A) (A) (A) (A) (A) (A) (A) (A) (A) (A) (A) (A)
                 (A) (A) (A) (A) (A) (A) (A) (A) (A) (A) (A) (A)
                 (A) (A) (A) (A) (A) (A) (A) (A) (A) (A) (A) (A)
                 (A) (A) (A) (A) (A) (A) (A) (A) (A) (A) (A) (A)
                 (A) (A) (A) (A) (A) (A) (A) (A) (A) (A) (A) (A)
                 (A) (A) (A) (A) (A) (A) (A) (A) (A) (A) (A) (A)
                 (A) (A) (A) (A) (A) (A) (A) (A) (A) (A) (A) (A)
                 (A) (A) (A) (A) (A) (A) (A) (A) (A) (A) (A) (A)
                 (A) (A) (A) (A) (A) (A) (A) (A)
       Virtual   (A) (A) (A) (A) (A) (A) (A) (A) (A) (A) (A) (A)
                 (A) (A) (A) (A) (A) (A) (A) (A) (A) (A) (A) (A)
                 (A) (A) (A) (A) (A) (A) (A) (A) (A) (A) (A) (A)
                 (A) (A) (A) (A) (A) (A) (A) (A) (A) (A) (A) (A)
                 (A) (A) (A) (A) (A) (A) (A) (A) (A) (A) (A) (A)
                 (A) (A) (A) (A) (A) (A) (A) (A) (A) (A) (A) (A)
                 (A) (A) (A) (A) (A) (A) (A) (A) (A) (A) (A) (A)
                 (A) (A) (A) (A) (A) (A) (A) (A) (A) (A) (A) (A)
                 (A) (A) (A) (A) (A) (A) (A) (A) (A) (A) (A) (A)
                 (A) (A) (A) (A) (A) (A) (A) (A) (A) (A) (A) (A)
                 (A) (A) (A) (A) (A) (A) (A) (A) (A) (A) (A) (A)
                 (A) (A) (A) (A) (A) (A) (A) (A) (A) (A) (A) (A)
                 (A) (A) (A) (A) (A) (A) (A) (A) (A) (A) (A) (A)
                 (A) (A) (A) (A) (A) (A) (A) (A) (A) (A) (A) (A)
                 (A) (A) (A) (A) (A) (A) (A) (A) (A) (A) (A) (A)
                 (A) (A) (A) (A) (A) (A) (A) (A) (A) (A) (A) (A)
                 (A) (A) (A) (A) (A) (A) (A) (A) (A) (A) (A) (A)
                 (A) (A) (A) (A) (A) (A) (A) (A) (A) (A) (A) (A)
                 (A) (A) (A) (A) (A) (A) (A) (A) (A) (A) (A) (A)
                 (A) (A) (A) (A) (A) (A) (A) (A) (A) (A) (A) (A)
                 (A) (A) (A) (A) (A) (A) (A) (A) (A) (A) (A) (A)
                 (A) (A) (A) (A) (A) (A) (A) (A) (A) (A) (A) (A)
                 (A) (A) (A) (A) (A) (A) (A) (A) (A) (A) (A) (A)
                 (A) (A) (A) (A) (A) (A) (A) (A) (A) (A) (A) (A)
                 (A) (A) (A) (A) (A) (A) (A) (A) (A) (A) (A) (A)
                 (A) (A) (A) (A) (A) (A) (A) (A) (A) (A) (A) (A)
                 (A) (A) (A) (A) (A) (A) (A) (A) (A) (A) (A) (A)
                 (A) (A) (A) (A) (A) (A) (A) (A) (A) (A) (A) (A)
                 (A) (A) (A) (A) (A) (A) (A) (A) (A) (A) (A) (A)
                 (A) (A) (A) (A) (A) (A) (A) (A) (A) (A) (A) (A)
                 (A) (A) (A) (A) (A) (A) (A) (A) (A) (A) (A) (A)
                 (A) (A) (A) (A) (A) (A) (A) (A) (A) (A) (A) (A)
                 (A) (A) (A) (A) (A) (A) (A) (A) (A) (A) (A) (A)
                 (A) (A) (A) (A) (A) (A) (A) (A) (A) (A) (A) (A)
                 (A) (A) (A) (A) (A) (A) (A) (A) (A) (A) (A) (A)
                 (A) (A) (A) (A) (A) (A) (A) (A) (A) (A) (A) (A)
                 (A) (A) (A) (A) (A) (A) (A) (A) (A) (A) (A) (A)
                 (A) (A) (A) (A) (A) (A) (A) (A) (A) (A) (A) (A)
                 (A) (A) (A) (A) (A) (A) (A) (A) (A) (A) (A) (A)
                 (A) (A) (A) (A) (A) (A) (A) (A) (A) (A) (A) (A)
                 (A) (A) (A) (A) (A) (A) (A) (A) (A) (A) (A) (A)
                 (A) (A) (A) (A) (A) (A) (A) (A) (A) (A) (A) (A)
                 (A) (A) (A) (A) (A) (A) (A) (A) (A) (A) (A) (A)
                 (A) (A) (A) (A) (A) (A) (A) (A) (A) (A) (A) (A)
                 (A) (A) (A) (A) (A) (A) (A) (A) (A) (A) (A) (A)
                 (A) (A) (A) (A) (A) (A) (A) (A) (A) (A) (A) (A)
                 (A) (A) (A) (A) (A) (A) (A) (A) (A) (A) (A) (A)
                 (A) (A) (A) (A) (A) (A) (A) (A) (A) (A) (A) (A)
                 (A) (A) (A) (A) (A) (A) (A) (A) (A) (A) (A) (A)
                 (A) (A) (A) (A) (A) (A) (A) (A) (A) (A) (A) (A)
                 (A) (A) (A) (A) (A) (A) (A) (A) (A) (A) (A) (A)
                 (A) (A) (A) (A) (A) (A) (A) (A) (A) (A) (A) (A)
                 (A) (A) (A) (A) (A) (A) (A) (A) (A) (A) (A) (A)
                 (A) (A) (A) (A) (A) (A) (A) (A) (A) (A) (A) (A)
                 (A) (A) (A) (A) (A) (A) (A) (A) (A) (A) (A) (A)
                 (A) (A) (A) (A) (A) (A) (A) (A) (A) (A) (A) (A)
                 (A) (A) (A) (A) (A) (A) (A) (A) (A) (A) (A) (A)
                 (A) (A) (A) (A) (A) (A) (A) (A) (A) (A) (A) (A)
                 (A) (A) (A) (A) (A) (A) (A) (A) (A) (A) (A) (A)
                 (A) (A) (A) (A) (A) (A) (A) (A) (A) (A) (A) (A)
                 (A) (A) (A) (A) (A) (A) (A) (A) (A) (A) (A) (A)
                 (A) (A) (A) (A) (A) (A) (A) (A) (A) (A) (A) (A)
                 (A) (A) (A) (A) (A) (A) (A) (A) (A) (A) (A) (A)
                 (A) (A) (A) (A) (A) (A) (A) (A) (A) (A) (A) (A)
                 (A) (A) (A) (A) (A) (A) (A) (A) (A) (A) (A) (A)
                 (A) (A) (A) (A) (A) (A) (A) (A) (A) (A) (A) (A)
                 (A) (A) (A) (A) (A) (A) (A) (A) (A) (A) (A) (A)
                 (A) (A) (A) (A) (A) (A) (A) (A) (A) (A) (A) (A)
                 (A) (A) (A) (A) (A) (A) (A) (A) (A) (A) (A) (A)
                 (A) (A) (A) (A) (A) (A) (A) (A) (A) (A) (A) (A)
                 (A) (A) (A) (A) (A) (A) (A) (A) (A) (A) (A) (A)
                 (A) (A) (A) (A) (A) (A) (A) (A) (A) (A) (A) (A)
                 (A) (A) (A) (A) (A) (A) (A) (A) (A) (A) (A) (A)
                 (A) (A) (A) (A) (A) (A) (A) (A) (A) (A) (A) (A)
                 (A) (A) (A) (A) (A) (A) (A) (A) (A) (A) (A) (A)
                 (A) (A) (A) (A) (A) (A) (A) (A) (A) (A) (A) (A)
                 (A) (A) (A) (A) (A) (A) (A) (A) (A) (A) (A) (A)
                 (A) (A) (A) (A) (A) (A) (A) (A) (A) (A) (A) (A)
                 (A) (A) (A) (A) (A) (A) (A) (A) (A) (A) (A) (A)
                 (A) (A) (A) (A) (A) (A) (A) (A) (A) (A) (A) (A)
                 (A) (A) (A) (A) (A) (A) (A) (A) (A) (A) (A) (A)
                 (A) (A) (A) (A) (A) (A) (A) (A) (A) (A) (A) (A)
                 (A) (A) (A) (A) (A) (A) (A) (A) (A) (A) (A) (A)
                 (A) (A) (A) (A) (A) (A) (A) (A) (A) (A) (A) (A)
                 (A) (A) (A) (A) (A) (A) (A) (A) (A) (A) (A) (A)
                 (A) (A) (A) (A) (A) (A) (A) (A) (A) (A) (A) (A)
                 (A) (A) (A) (A) (A) (A) (A) (A) (A) (A) (A) (A)
                 (A) (A) (A) (A) (A) (A) (A) (A) (A) (A) (A) (A)
                 (A) (A) (A) (A) (A) (A) (A) (A) (A) (A) (A) (A)
                 (A) (A) (A) (A) (A) (A) (A) (A) (A) (A) (A) (A)
                 (A) (A) (A) (A) (A) (A) (A) (A) (A) (A) (A) (A)
                 (A) (A) (A) (A) (A) (A) (A) (A) (A) (A) (A) (A)
                 (A) (A) (A) (A) (A) (A) (A) (A) (A) (A) (A) (A)
                 (A) (A) (A) (A) (A) (A) (A) (A) (A) (A) (A) (A)
                 (A) (A) (A) (A) (A) (A) (A) (A) (A) (A) (A) (A)
                 (A) (A) (A) (A) (A) (A) (A) (A) (A) (A) (A) (A)
                 (A) (A) (A) (A) (A) (A) (A) (A) (A) (A) (A) (A)
                 (A) (A) (A) (A) (A) (A) (A) (A) (A) (A) (A) (A)
                 (A) (A) (A) (A) (A) (A) (A) (A) (A) (A) (A) (A)
                 (A) (A) (A) (A) (A) (A) (A) (A) (A) (A) (A) (A)
                 (A) (A) (A) (A) (A) (A) (A) (A) (A) (A) (A) (A)
                 (A) (A) (A) (A) (A) (A) (A) (A) (A) (A) (A) (A)
                 (A) (A) (A) (A) (A) (A) (A) (A) (A) (A) (A) (A)
                 (A) (A) (A) (A) (A) (A) (A) (A) (A) (A) (A) (A)
                 (A) (A) (A) (A) (A) (A) (A) (A) (A) (A) (A) (A)
                 (A) (A) (A) (A) (A) (A) (A) (A) (A) (A) (A) (A)
                 (A) (A) (A) (A) (A) (A) (A) (A) (A) (A) (A) (A)
                 (A) (A) (A) (A) (A) (A) (A) (A) (A) (A) (A) (A)
                 (A) (A) (A) (A) (A) (A) (A) (A) (A) (A) (A) (A)
                 (A) (A) (A) (A) (A) (A) (A) (A) (A) (A) (A) (A)
                 (A) (A) (A) (A) (A) (A) (A) (A) (A) (A) (A) (A)
                 (A) (A) (A) (A) (A) (A) (A) (A) (A) (A) (A) (A)
                 (A) (A) (A) (A) (A) (A) (A) (A) (A) (A)
 The electronic state is 1-A.
 Alpha  occ. eigenvalues --  -77.19960 -77.19617 -19.25041 -10.29383 -10.29298
 Alpha  occ. eigenvalues --  -10.26887 -10.24741 -10.24616 -10.24201 -10.24080
 Alpha  occ. eigenvalues --  -10.24049 -10.24014 -10.23864 -10.23710 -10.23701
 Alpha  occ. eigenvalues --  -10.23632 -10.23601 -10.23560 -10.23525 -10.23424
 Alpha  occ. eigenvalues --  -10.23383 -10.23364 -10.23285 -10.23274 -10.23160
 Alpha  occ. eigenvalues --  -10.23133 -10.23099 -10.23045 -10.22975 -10.22831
 Alpha  occ. eigenvalues --  -10.22656 -10.22566 -10.22505 -10.22472 -10.22425
 Alpha  occ. eigenvalues --  -10.22407 -10.22401 -10.22351 -10.22333 -10.22297
 Alpha  occ. eigenvalues --  -10.22247 -10.22176  -6.59490  -6.59174  -4.73100
 Alpha  occ. eigenvalues --   -4.73065  -4.72789  -4.72740  -4.72609  -4.72295
 Alpha  occ. eigenvalues --   -1.12098  -0.89363  -0.89095  -0.88111  -0.87801
 Alpha  occ. eigenvalues --   -0.87049  -0.86877  -0.84514  -0.79624  -0.78781
 Alpha  occ. eigenvalues --   -0.78211  -0.77010  -0.76883  -0.76589  -0.76263
 Alpha  occ. eigenvalues --   -0.76016  -0.75788  -0.75739  -0.75507  -0.74632
 Alpha  occ. eigenvalues --   -0.71574  -0.67466  -0.66599  -0.65329  -0.65140
 Alpha  occ. eigenvalues --   -0.62408  -0.62220  -0.61910  -0.61662  -0.61014
 Alpha  occ. eigenvalues --   -0.60908  -0.60823  -0.60419  -0.58066  -0.57336
 Alpha  occ. eigenvalues --   -0.56312  -0.55818  -0.52884  -0.52659  -0.51848
 Alpha  occ. eigenvalues --   -0.51241  -0.50643  -0.49665  -0.49045  -0.47819
 Alpha  occ. eigenvalues --   -0.47441  -0.46775  -0.46567  -0.46481  -0.46355
 Alpha  occ. eigenvalues --   -0.46278  -0.45765  -0.45674  -0.45480  -0.45322
 Alpha  occ. eigenvalues --   -0.45156  -0.43522  -0.43207  -0.42875  -0.42767
 Alpha  occ. eigenvalues --   -0.42651  -0.42500  -0.41968  -0.41545  -0.41213
 Alpha  occ. eigenvalues --   -0.40411  -0.40150  -0.39712  -0.39410  -0.38970
 Alpha  occ. eigenvalues --   -0.38504  -0.38395  -0.38239  -0.37953  -0.37580
 Alpha  occ. eigenvalues --   -0.36951  -0.36228  -0.35964  -0.35710  -0.35455
 Alpha  occ. eigenvalues --   -0.35292  -0.35126  -0.34795  -0.34567  -0.33440
 Alpha  occ. eigenvalues --   -0.33161  -0.32863  -0.32010  -0.29295  -0.27956
 Alpha  occ. eigenvalues --   -0.27461  -0.27163  -0.26988  -0.26622  -0.26370
 Alpha  occ. eigenvalues --   -0.25880  -0.25808  -0.25519  -0.25299  -0.24154
 Alpha  occ. eigenvalues --   -0.22117  -0.19759
 Alpha virt. eigenvalues --   -0.03590  -0.03019  -0.02305  -0.02095  -0.01772
 Alpha virt. eigenvalues --   -0.01674  -0.01194  -0.00742  -0.00489  -0.00121
 Alpha virt. eigenvalues --    0.00280   0.00512   0.03786   0.04647   0.05253
 Alpha virt. eigenvalues --    0.05551   0.06213   0.06315   0.06514   0.07373
 Alpha virt. eigenvalues --    0.07531   0.07747   0.08055   0.08394   0.08667
 Alpha virt. eigenvalues --    0.08917   0.09276   0.09549   0.10014   0.10187
 Alpha virt. eigenvalues --    0.10335   0.10570   0.10756   0.10843   0.11204
 Alpha virt. eigenvalues --    0.11394   0.11598   0.11987   0.12130   0.12338
 Alpha virt. eigenvalues --    0.12576   0.12916   0.13106   0.13542   0.13572
 Alpha virt. eigenvalues --    0.13853   0.13906   0.14240   0.14566   0.14882
 Alpha virt. eigenvalues --    0.15318   0.15464   0.15697   0.15996   0.16216
 Alpha virt. eigenvalues --    0.16719   0.16897   0.17015   0.17720   0.17942
 Alpha virt. eigenvalues --    0.18430   0.18704   0.19022   0.19131   0.19681
 Alpha virt. eigenvalues --    0.19981   0.20429   0.20564   0.20817   0.21042
 Alpha virt. eigenvalues --    0.21460   0.21602   0.21783   0.22226   0.22387
 Alpha virt. eigenvalues --    0.22515   0.22819   0.23000   0.23133   0.23396
 Alpha virt. eigenvalues --    0.23583   0.23744   0.23852   0.24138   0.24442
 Alpha virt. eigenvalues --    0.24487   0.24870   0.25181   0.25329   0.25591
 Alpha virt. eigenvalues --    0.25769   0.26108   0.26183   0.26417   0.26605
 Alpha virt. eigenvalues --    0.26869   0.27103   0.27311   0.27661   0.27682
 Alpha virt. eigenvalues --    0.28168   0.28267   0.28666   0.28739   0.28830
 Alpha virt. eigenvalues --    0.29401   0.29570   0.29884   0.30106   0.30550
 Alpha virt. eigenvalues --    0.30688   0.31193   0.31285   0.31543   0.31779
 Alpha virt. eigenvalues --    0.31960   0.32273   0.32480   0.32589   0.33255
 Alpha virt. eigenvalues --    0.33571   0.33663   0.33710   0.34266   0.34757
 Alpha virt. eigenvalues --    0.34856   0.35026   0.35302   0.35524   0.35617
 Alpha virt. eigenvalues --    0.35918   0.36018   0.36238   0.36465   0.37078
 Alpha virt. eigenvalues --    0.37413   0.37663   0.37800   0.38050   0.38240
 Alpha virt. eigenvalues --    0.38663   0.38837   0.39113   0.39219   0.39331
 Alpha virt. eigenvalues --    0.39672   0.39835   0.39920   0.40216   0.40360
 Alpha virt. eigenvalues --    0.40371   0.40588   0.40937   0.40975   0.41211
 Alpha virt. eigenvalues --    0.41665   0.41832   0.41886   0.42426   0.42587
 Alpha virt. eigenvalues --    0.42614   0.42797   0.43136   0.43326   0.43507
 Alpha virt. eigenvalues --    0.43559   0.43589   0.43804   0.44020   0.44111
 Alpha virt. eigenvalues --    0.44422   0.44554   0.44766   0.44985   0.45147
 Alpha virt. eigenvalues --    0.45212   0.45355   0.45518   0.45929   0.46164
 Alpha virt. eigenvalues --    0.46224   0.46465   0.46766   0.46912   0.47282
 Alpha virt. eigenvalues --    0.47379   0.47646   0.47808   0.48350   0.48386
 Alpha virt. eigenvalues --    0.48622   0.48972   0.49117   0.49535   0.50011
 Alpha virt. eigenvalues --    0.50132   0.50352   0.50386   0.50585   0.50816
 Alpha virt. eigenvalues --    0.50837   0.51060   0.51321   0.51372   0.51899
 Alpha virt. eigenvalues --    0.52069   0.52507   0.52671   0.52809   0.52837
 Alpha virt. eigenvalues --    0.53285   0.53470   0.53905   0.53948   0.54587
 Alpha virt. eigenvalues --    0.54724   0.55090   0.55197   0.55541   0.56146
 Alpha virt. eigenvalues --    0.56264   0.56599   0.56966   0.57356   0.57645
 Alpha virt. eigenvalues --    0.58161   0.58451   0.58631   0.58884   0.59518
 Alpha virt. eigenvalues --    0.59537   0.59968   0.60248   0.60788   0.61242
 Alpha virt. eigenvalues --    0.61668   0.62060   0.62578   0.62904   0.63425
 Alpha virt. eigenvalues --    0.63508   0.63609   0.63826   0.64568   0.64629
 Alpha virt. eigenvalues --    0.65224   0.65684   0.65821   0.66247   0.66403
 Alpha virt. eigenvalues --    0.66741   0.67309   0.67634   0.67844   0.68030
 Alpha virt. eigenvalues --    0.68167   0.68573   0.68770   0.69096   0.69466
 Alpha virt. eigenvalues --    0.69852   0.70226   0.70343   0.70614   0.70753
 Alpha virt. eigenvalues --    0.70933   0.71146   0.71224   0.71565   0.72017
 Alpha virt. eigenvalues --    0.72285   0.72623   0.73077   0.73192   0.73590
 Alpha virt. eigenvalues --    0.73829   0.74097   0.74373   0.74691   0.74956
 Alpha virt. eigenvalues --    0.75166   0.75423   0.75737   0.75843   0.76449
 Alpha virt. eigenvalues --    0.76643   0.77086   0.77506   0.77554   0.78120
 Alpha virt. eigenvalues --    0.78353   0.78667   0.78988   0.79287   0.79403
 Alpha virt. eigenvalues --    0.79840   0.79984   0.80472   0.80651   0.80911
 Alpha virt. eigenvalues --    0.81440   0.81620   0.81952   0.82220   0.82712
 Alpha virt. eigenvalues --    0.82896   0.83124   0.83386   0.84020   0.84438
 Alpha virt. eigenvalues --    0.84715   0.85108   0.85422   0.85811   0.85847
 Alpha virt. eigenvalues --    0.86017   0.86219   0.86787   0.87560   0.87957
 Alpha virt. eigenvalues --    0.88149   0.88191   0.89114   0.89379   0.89812
 Alpha virt. eigenvalues --    0.89998   0.90448   0.90492   0.91169   0.91329
 Alpha virt. eigenvalues --    0.91580   0.91953   0.92257   0.92453   0.92808
 Alpha virt. eigenvalues --    0.93026   0.93339   0.93718   0.94261   0.94491
 Alpha virt. eigenvalues --    0.94622   0.94825   0.95648   0.95998   0.96604
 Alpha virt. eigenvalues --    0.96937   0.97172   0.97542   0.97815   0.98287
 Alpha virt. eigenvalues --    0.98925   0.99079   0.99621   1.00155   1.00427
 Alpha virt. eigenvalues --    1.00814   1.01452   1.01640   1.01906   1.02542
 Alpha virt. eigenvalues --    1.02848   1.03424   1.03854   1.04341   1.05138
 Alpha virt. eigenvalues --    1.05440   1.06360   1.06557   1.07469   1.07633
 Alpha virt. eigenvalues --    1.08016   1.08318   1.08855   1.09081   1.09495
 Alpha virt. eigenvalues --    1.09901   1.10092   1.10389   1.10806   1.11240
 Alpha virt. eigenvalues --    1.11613   1.11906   1.12082   1.12470   1.12801
 Alpha virt. eigenvalues --    1.13152   1.13568   1.13810   1.14373   1.14422
 Alpha virt. eigenvalues --    1.14973   1.15415   1.15881   1.16581   1.16811
 Alpha virt. eigenvalues --    1.17400   1.17694   1.17864   1.18292   1.18498
 Alpha virt. eigenvalues --    1.18781   1.19326   1.19651   1.19852   1.20083
 Alpha virt. eigenvalues --    1.20557   1.20959   1.21571   1.22041   1.22277
 Alpha virt. eigenvalues --    1.22543   1.22963   1.23221   1.23836   1.24067
 Alpha virt. eigenvalues --    1.24422   1.24518   1.24764   1.24896   1.25215
 Alpha virt. eigenvalues --    1.25600   1.25940   1.26547   1.26873   1.27041
 Alpha virt. eigenvalues --    1.27711   1.28113   1.28448   1.28676   1.29038
 Alpha virt. eigenvalues --    1.29300   1.29387   1.29673   1.29983   1.30438
 Alpha virt. eigenvalues --    1.30629   1.30756   1.31334   1.31494   1.32062
 Alpha virt. eigenvalues --    1.32339   1.32484   1.32762   1.33280   1.33483
 Alpha virt. eigenvalues --    1.34234   1.34684   1.35229   1.35480   1.35669
 Alpha virt. eigenvalues --    1.36218   1.36672   1.36856   1.37216   1.37788
 Alpha virt. eigenvalues --    1.37973   1.38658   1.39434   1.39855   1.40224
 Alpha virt. eigenvalues --    1.40757   1.41083   1.41472   1.42404   1.42579
 Alpha virt. eigenvalues --    1.42790   1.42976   1.43476   1.44185   1.44387
 Alpha virt. eigenvalues --    1.45043   1.45192   1.45476   1.45869   1.46011
 Alpha virt. eigenvalues --    1.46550   1.47302   1.47734   1.48068   1.48658
 Alpha virt. eigenvalues --    1.48963   1.49562   1.49683   1.50006   1.50584
 Alpha virt. eigenvalues --    1.51018   1.51087   1.51536   1.51704   1.51872
 Alpha virt. eigenvalues --    1.52135   1.53151   1.53449   1.54075   1.54432
 Alpha virt. eigenvalues --    1.54670   1.54882   1.55319   1.55440   1.55858
 Alpha virt. eigenvalues --    1.56241   1.56554   1.56925   1.57433   1.57839
 Alpha virt. eigenvalues --    1.57851   1.58272   1.58786   1.59031   1.59743
 Alpha virt. eigenvalues --    1.59930   1.60032   1.60392   1.60811   1.61077
 Alpha virt. eigenvalues --    1.62016   1.62304   1.62747   1.62939   1.63080
 Alpha virt. eigenvalues --    1.63491   1.63537   1.64037   1.64201   1.64671
 Alpha virt. eigenvalues --    1.64879   1.65072   1.65396   1.65803   1.66106
 Alpha virt. eigenvalues --    1.66556   1.66660   1.67077   1.67662   1.68013
 Alpha virt. eigenvalues --    1.68188   1.68479   1.68820   1.69243   1.69292
 Alpha virt. eigenvalues --    1.69641   1.69801   1.70261   1.70760   1.70906
 Alpha virt. eigenvalues --    1.71143   1.71463   1.71689   1.71890   1.72083
 Alpha virt. eigenvalues --    1.72358   1.72539   1.72953   1.73145   1.73612
 Alpha virt. eigenvalues --    1.73750   1.73990   1.74227   1.75178   1.75546
 Alpha virt. eigenvalues --    1.75764   1.75966   1.76022   1.76749   1.77408
 Alpha virt. eigenvalues --    1.77693   1.78111   1.78198   1.78780   1.79150
 Alpha virt. eigenvalues --    1.79308   1.80263   1.80922   1.81122   1.81461
 Alpha virt. eigenvalues --    1.81980   1.82422   1.82726   1.83092   1.83281
 Alpha virt. eigenvalues --    1.83438   1.83861   1.84392   1.84786   1.85545
 Alpha virt. eigenvalues --    1.85992   1.86209   1.86443   1.86958   1.87310
 Alpha virt. eigenvalues --    1.87861   1.88179   1.89046   1.89452   1.90142
 Alpha virt. eigenvalues --    1.90570   1.91022   1.91320   1.91633   1.92414
 Alpha virt. eigenvalues --    1.92571   1.93360   1.93537   1.93913   1.94908
 Alpha virt. eigenvalues --    1.95230   1.95921   1.96408   1.96612   1.97125
 Alpha virt. eigenvalues --    1.98024   1.98380   1.98981   1.99455   1.99663
 Alpha virt. eigenvalues --    2.00087   2.00818   2.01548   2.01889   2.02263
 Alpha virt. eigenvalues --    2.03158   2.03348   2.03495   2.04258   2.04547
 Alpha virt. eigenvalues --    2.04959   2.05756   2.06008   2.06451   2.06689
 Alpha virt. eigenvalues --    2.07209   2.08290   2.08765   2.09212   2.09416
 Alpha virt. eigenvalues --    2.09782   2.09998   2.10300   2.11221   2.11363
 Alpha virt. eigenvalues --    2.11773   2.12356   2.12793   2.13138   2.13590
 Alpha virt. eigenvalues --    2.13776   2.14130   2.14369   2.14731   2.15744
 Alpha virt. eigenvalues --    2.16010   2.16539   2.16660   2.17023   2.17658
 Alpha virt. eigenvalues --    2.17859   2.18180   2.18600   2.18955   2.19200
 Alpha virt. eigenvalues --    2.19658   2.19852   2.20258   2.20713   2.20943
 Alpha virt. eigenvalues --    2.21259   2.21949   2.22349   2.22572   2.22783
 Alpha virt. eigenvalues --    2.23459   2.24384   2.24558   2.24998   2.25514
 Alpha virt. eigenvalues --    2.25807   2.25959   2.26616   2.26685   2.27978
 Alpha virt. eigenvalues --    2.28145   2.28411   2.29135   2.30170   2.30589
 Alpha virt. eigenvalues --    2.30907   2.31779   2.32281   2.33010   2.33621
 Alpha virt. eigenvalues --    2.34130   2.34802   2.35398   2.36661   2.37942
 Alpha virt. eigenvalues --    2.38455   2.38578   2.38832   2.39950   2.40378
 Alpha virt. eigenvalues --    2.40934   2.41434   2.41574   2.42321   2.42987
 Alpha virt. eigenvalues --    2.43497   2.43762   2.44088   2.44453   2.44789
 Alpha virt. eigenvalues --    2.45419   2.45612   2.45904   2.46191   2.46761
 Alpha virt. eigenvalues --    2.47861   2.48109   2.48709   2.48923   2.49335
 Alpha virt. eigenvalues --    2.49970   2.50163   2.50566   2.51034   2.52102
 Alpha virt. eigenvalues --    2.52841   2.53238   2.53683   2.54100   2.54723
 Alpha virt. eigenvalues --    2.55246   2.55667   2.55975   2.56037   2.56317
 Alpha virt. eigenvalues --    2.57114   2.57469   2.58206   2.58956   2.59254
 Alpha virt. eigenvalues --    2.59433   2.59818   2.60136   2.60457   2.60886
 Alpha virt. eigenvalues --    2.60941   2.61179   2.61825   2.62058   2.62557
 Alpha virt. eigenvalues --    2.62592   2.63178   2.63599   2.63736   2.63911
 Alpha virt. eigenvalues --    2.64211   2.64483   2.64968   2.65355   2.65499
 Alpha virt. eigenvalues --    2.65708   2.65855   2.66013   2.66246   2.66836
 Alpha virt. eigenvalues --    2.67030   2.67382   2.67851   2.67924   2.68159
 Alpha virt. eigenvalues --    2.68393   2.68617   2.68801   2.68874   2.69345
 Alpha virt. eigenvalues --    2.69737   2.69929   2.70692   2.71031   2.71115
 Alpha virt. eigenvalues --    2.71757   2.72012   2.72212   2.72478   2.72647
 Alpha virt. eigenvalues --    2.72930   2.73158   2.73380   2.73661   2.74250
 Alpha virt. eigenvalues --    2.74565   2.74692   2.74979   2.75352   2.75714
 Alpha virt. eigenvalues --    2.76331   2.76646   2.76983   2.77204   2.77554
 Alpha virt. eigenvalues --    2.77957   2.78058   2.78336   2.78524   2.78691
 Alpha virt. eigenvalues --    2.79317   2.79517   2.79783   2.80210   2.80426
 Alpha virt. eigenvalues --    2.80729   2.80891   2.81356   2.81899   2.82051
 Alpha virt. eigenvalues --    2.82472   2.82839   2.83125   2.83235   2.83684
 Alpha virt. eigenvalues --    2.84036   2.84370   2.84663   2.84899   2.85378
 Alpha virt. eigenvalues --    2.85807   2.86069   2.86331   2.86393   2.86787
 Alpha virt. eigenvalues --    2.86857   2.87368   2.87652   2.87784   2.88357
 Alpha virt. eigenvalues --    2.88423   2.88938   2.89363   2.89842   2.90242
 Alpha virt. eigenvalues --    2.90469   2.90698   2.91304   2.91437   2.91850
 Alpha virt. eigenvalues --    2.92333   2.92446   2.92934   2.93150   2.93287
 Alpha virt. eigenvalues --    2.93678   2.94079   2.94156   2.94755   2.95008
 Alpha virt. eigenvalues --    2.95379   2.96184   2.96241   2.96900   2.97135
 Alpha virt. eigenvalues --    2.97500   2.97840   2.98690   2.99094   2.99508
 Alpha virt. eigenvalues --    3.00083   3.00887   3.01388   3.02247   3.02747
 Alpha virt. eigenvalues --    3.03199   3.03695   3.04281   3.05451   3.05565
 Alpha virt. eigenvalues --    3.06436   3.06711   3.07236   3.07668   3.07694
 Alpha virt. eigenvalues --    3.08670   3.08959   3.09236   3.09587   3.10391
 Alpha virt. eigenvalues --    3.10542   3.10962   3.11705   3.11929   3.12299
 Alpha virt. eigenvalues --    3.12580   3.12926   3.13022   3.13299   3.13871
 Alpha virt. eigenvalues --    3.13924   3.14366   3.14738   3.15218   3.15478
 Alpha virt. eigenvalues --    3.15635   3.16105   3.16476   3.16513   3.16870
 Alpha virt. eigenvalues --    3.16987   3.17192   3.17620   3.17812   3.18311
 Alpha virt. eigenvalues --    3.18593   3.19036   3.19401   3.19843   3.19942
 Alpha virt. eigenvalues --    3.20319   3.20400   3.20928   3.21069   3.21467
 Alpha virt. eigenvalues --    3.21919   3.22043   3.22270   3.22654   3.23014
 Alpha virt. eigenvalues --    3.23495   3.23657   3.23857   3.24452   3.24645
 Alpha virt. eigenvalues --    3.25215   3.25537   3.25845   3.26071   3.26532
 Alpha virt. eigenvalues --    3.26617   3.27354   3.27569   3.27862   3.28197
 Alpha virt. eigenvalues --    3.28486   3.28744   3.29409   3.29547   3.29985
 Alpha virt. eigenvalues --    3.30358   3.30720   3.30869   3.30896   3.31428
 Alpha virt. eigenvalues --    3.31747   3.32289   3.32386   3.32640   3.33012
 Alpha virt. eigenvalues --    3.33435   3.33831   3.34451   3.34597   3.34887
 Alpha virt. eigenvalues --    3.34926   3.35172   3.35362   3.35666   3.35857
 Alpha virt. eigenvalues --    3.36302   3.36401   3.36437   3.36967   3.37480
 Alpha virt. eigenvalues --    3.37529   3.38213   3.38355   3.38574   3.38824
 Alpha virt. eigenvalues --    3.39376   3.39551   3.39782   3.39912   3.40210
 Alpha virt. eigenvalues --    3.40639   3.41168   3.41352   3.41518   3.42044
 Alpha virt. eigenvalues --    3.42375   3.42512   3.42686   3.43028   3.43300
 Alpha virt. eigenvalues --    3.43487   3.43732   3.43853   3.44446   3.44984
 Alpha virt. eigenvalues --    3.45134   3.45345   3.45836   3.46040   3.46137
 Alpha virt. eigenvalues --    3.46408   3.46854   3.47233   3.47738   3.47991
 Alpha virt. eigenvalues --    3.48058   3.48536   3.48614   3.48993   3.49474
 Alpha virt. eigenvalues --    3.49898   3.50325   3.50720   3.50762   3.51213
 Alpha virt. eigenvalues --    3.51648   3.52057   3.52455   3.52851   3.53006
 Alpha virt. eigenvalues --    3.53371   3.53474   3.53797   3.53946   3.54179
 Alpha virt. eigenvalues --    3.54518   3.54746   3.55117   3.55361   3.55424
 Alpha virt. eigenvalues --    3.55857   3.56160   3.56355   3.56537   3.57068
 Alpha virt. eigenvalues --    3.57353   3.57422   3.57697   3.58289   3.58645
 Alpha virt. eigenvalues --    3.58892   3.59313   3.59673   3.60108   3.60545
 Alpha virt. eigenvalues --    3.61075   3.61949   3.62100   3.62938   3.63215
 Alpha virt. eigenvalues --    3.63717   3.64314   3.65400   3.65447   3.66149
 Alpha virt. eigenvalues --    3.66987   3.67223   3.67776   3.68191   3.69472
 Alpha virt. eigenvalues --    3.70066   3.70405   3.71185   3.71387   3.71666
 Alpha virt. eigenvalues --    3.72018   3.72174   3.73306   3.73889   3.74293
 Alpha virt. eigenvalues --    3.74793   3.75533   3.75687   3.75861   3.76392
 Alpha virt. eigenvalues --    3.76976   3.77482   3.78035   3.78229   3.78719
 Alpha virt. eigenvalues --    3.79200   3.79775   3.80611   3.81123   3.82383
 Alpha virt. eigenvalues --    3.82765   3.83483   3.84978   3.86828   3.87261
 Alpha virt. eigenvalues --    3.88791   3.90056   3.90316   3.91681   3.92780
 Alpha virt. eigenvalues --    3.93724   3.94569   3.94966   3.95333   3.96498
 Alpha virt. eigenvalues --    3.96746   3.97271   3.97995   3.98362   3.99139
 Alpha virt. eigenvalues --    3.99299   4.00947   4.01576   4.02016   4.03035
 Alpha virt. eigenvalues --    4.03538   4.03932   4.04797   4.04976   4.05617
 Alpha virt. eigenvalues --    4.05789   4.06449   4.06880   4.07089   4.08182
 Alpha virt. eigenvalues --    4.08305   4.09363   4.09551   4.10887   4.11373
 Alpha virt. eigenvalues --    4.11892   4.12418   4.13175   4.13303   4.13711
 Alpha virt. eigenvalues --    4.14171   4.14368   4.14740   4.15123   4.15704
 Alpha virt. eigenvalues --    4.15902   4.17235   4.17569   4.18578   4.18768
 Alpha virt. eigenvalues --    4.19486   4.19592   4.19778   4.19990   4.20455
 Alpha virt. eigenvalues --    4.20860   4.20920   4.20970   4.21460   4.21875
 Alpha virt. eigenvalues --    4.22030   4.22223   4.22415   4.22674   4.22951
 Alpha virt. eigenvalues --    4.23251   4.23818   4.23917   4.24635   4.24757
 Alpha virt. eigenvalues --    4.24934   4.25194   4.25637   4.25935   4.26344
 Alpha virt. eigenvalues --    4.26961   4.27229   4.27578   4.27869   4.27987
 Alpha virt. eigenvalues --    4.28534   4.28866   4.29568   4.30379   4.31042
 Alpha virt. eigenvalues --    4.31424   4.31738   4.32061   4.32895   4.33726
 Alpha virt. eigenvalues --    4.34119   4.34729   4.35439   4.35628   4.35938
 Alpha virt. eigenvalues --    4.36941   4.37487   4.38494   4.38916   4.39642
 Alpha virt. eigenvalues --    4.40077   4.40368   4.42015   4.42578   4.43584
 Alpha virt. eigenvalues --    4.44648   4.44985   4.45466   4.46991   4.49517
 Alpha virt. eigenvalues --    4.49989   4.53366   4.55662   4.56695   4.57466
 Alpha virt. eigenvalues --    4.61273   4.61465   4.62124   4.62805   4.63257
 Alpha virt. eigenvalues --    4.63348   4.63660   4.64224   4.64375   4.65123
 Alpha virt. eigenvalues --    4.65619   4.66024   4.66455   4.67619   4.68283
 Alpha virt. eigenvalues --    4.69484   4.70699   4.71252   4.72200   4.73145
 Alpha virt. eigenvalues --    4.73406   4.73878   4.74909   4.76174   4.77270
 Alpha virt. eigenvalues --    4.79123   4.79583   4.80541   4.83696   4.84453
 Alpha virt. eigenvalues --    4.85276   4.86668   4.86969   4.88814   4.91378
 Alpha virt. eigenvalues --    4.92230   4.92310   4.93313   4.93905   4.94698
 Alpha virt. eigenvalues --    4.95024   4.95787   4.96751   4.96837   4.97755
 Alpha virt. eigenvalues --    4.98954   4.99888   5.00367   5.01214   5.05166
 Alpha virt. eigenvalues --    5.07122   5.09155   5.11657   5.12157   5.13457
 Alpha virt. eigenvalues --    5.14047   5.14663   5.14989   5.15207   5.15452
 Alpha virt. eigenvalues --    5.15860   5.16169   5.18315   5.22190   5.23260
 Alpha virt. eigenvalues --    5.26523   5.27734   5.29182   5.30567   5.34470
 Alpha virt. eigenvalues --    5.34795   5.35348   5.35564   5.36223   5.38128
 Alpha virt. eigenvalues --    5.40375   5.40805   5.41999   5.43470   5.46024
 Alpha virt. eigenvalues --    5.46775   5.49302   5.52235   5.57650   5.58536
 Alpha virt. eigenvalues --    5.59110   5.59403   5.59887   5.61296   5.63441
 Alpha virt. eigenvalues --    5.74700   6.04548   6.09654   6.22672   6.39527
 Alpha virt. eigenvalues --    6.56399   6.87101   6.93552   7.09887   7.41046
 Alpha virt. eigenvalues --    7.49111   7.81461   7.87539   8.00399   8.04000
 Alpha virt. eigenvalues --    8.09177   8.11080  15.98446  16.03810  22.14660
 Alpha virt. eigenvalues --   22.16696  22.26655  22.39062  22.45309  22.48444
 Alpha virt. eigenvalues --   22.51131  22.55912  22.61975  22.62862  22.63020
 Alpha virt. eigenvalues --   22.63738  22.66369  22.68073  22.69101  22.70627
 Alpha virt. eigenvalues --   22.71647  22.73246  22.75553  22.76115  22.76853
 Alpha virt. eigenvalues --   22.77932  22.80126  22.82998  22.83733  22.85440
 Alpha virt. eigenvalues --   22.86828  22.90231  22.97055  22.98004  23.02488
 Alpha virt. eigenvalues --   23.04667  23.07815  23.13558  23.17166  23.18359
 Alpha virt. eigenvalues --   23.20116  23.42822  23.55343  44.64747
          Condensed to atoms (all electrons):
 Mulliken charges:
               1
     1  P    0.073676
     2  C   -0.155565
     3  C   -0.171296
     4  C   -0.163453
     5  C   -0.173308
     6  C   -0.025434
     7  C    0.240034
     8  O   -0.236139
     9  C    0.306160
    10  C   -0.446257
    11  C   -0.404712
    12  C    0.052568
    13  C   -0.087614
    14  C   -0.146628
    15  C   -0.126073
    16  C   -0.118954
    17  C   -0.175805
    18  C    0.087465
    19  C   -0.166128
    20  C   -0.108721
    21  C   -0.156851
    22  C   -0.122226
    23  C   -0.191121
    24  H    0.165680
    25  H    0.116801
    26  H    0.114734
    27  H    0.150072
    28  H    0.133119
    29  H    0.151939
    30  H    0.127532
    31  H    0.150332
    32  H    0.114508
    33  H    0.114323
    34  H    0.119536
    35  H    0.150975
    36  H    0.107710
    37  H    0.114573
    38  H    0.117038
    39  H    0.120368
    40  P    0.115143
    41  C   -0.095726
    42  C   -0.144502
    43  C   -0.150887
    44  C   -0.182204
    45  C   -0.002720
    46  C    0.122373
    47  C   -0.066574
    48  C   -0.022733
    49  C   -0.256260
    50  C   -0.076279
    51  C   -0.139478
    52  C   -0.056549
    53  C    0.097448
    54  C   -0.210610
    55  C   -0.099584
    56  C   -0.146574
    57  C   -0.118518
    58  C   -0.216711
    59  H    0.153105
    60  H    0.117595
    61  H    0.115208
    62  H    0.133798
    63  H    0.126054
    64  H    0.177087
    65  H    0.131252
    66  H    0.128398
    67  H    0.107269
    68  H    0.107473
    69  H    0.105306
    70  H    0.124706
    71  H    0.119250
    72  H    0.120285
    73  H    0.117923
    74  H    0.113376
 Sum of Mulliken charges =  -0.00000
 Mulliken charges with hydrogens summed into heavy atoms:
               1
     1  P    0.073676
     2  C   -0.155565
     3  C   -0.005616
     4  C   -0.048719
     5  C   -0.056507
     6  C   -0.025434
     7  C    0.240034
     8  O   -0.236139
     9  C    0.306160
    10  C   -0.029268
    11  C    0.000813
    12  C    0.052568
    13  C    0.063361
    14  C   -0.038919
    15  C   -0.011500
    16  C   -0.001916
    17  C   -0.055438
    18  C    0.087465
    19  C   -0.015796
    20  C    0.005787
    21  C   -0.043475
    22  C   -0.007903
    23  C   -0.071585
    40  P    0.115143
    41  C   -0.095726
    42  C    0.008603
    43  C   -0.035679
    44  C   -0.064608
    45  C   -0.002720
    46  C    0.122373
    47  C   -0.066574
    48  C    0.105666
    49  C   -0.148991
    50  C    0.031194
    51  C   -0.034172
    52  C    0.068157
    53  C    0.097448
    54  C   -0.033524
    55  C    0.020700
    56  C   -0.028651
    57  C    0.000732
    58  C   -0.085458
 Electronic spatial extent (au):  <R**2>=          20326.3312
 Charge=              0.0000 electrons
 Dipole moment (field-independent basis, Debye):
    X=              0.7731    Y=              0.9871    Z=              2.4329  Tot=              2.7370
 Quadrupole moment (field-independent basis, Debye-Ang):
   XX=           -244.9144   YY=           -231.0732   ZZ=           -252.9449
   XY=             -4.8592   XZ=             -3.3075   YZ=              2.8137
 Traceless Quadrupole moment (field-independent basis, Debye-Ang):
   XX=             -1.9369   YY=             11.9043   ZZ=             -9.9674
   XY=             -4.8592   XZ=             -3.3075   YZ=              2.8137
 Octapole moment (field-independent basis, Debye-Ang**2):
  XXX=             35.3183  YYY=             33.0088  ZZZ=             32.1418  XYY=             21.8436
  XXY=            -17.0393  XXZ=            -15.6007  XZZ=            -16.4364  YZZ=            -17.5150
  YYZ=             25.2672  XYZ=             29.1088
 Hexadecapole moment (field-independent basis, Debye-Ang**3):
 XXXX=         -12904.8817 YYYY=         -10006.9458 ZZZZ=          -4053.7849 XXXY=           -118.4269
 XXXZ=            132.9274 YYYX=             -4.5057 YYYZ=             46.5866 ZZZX=            -69.9981
 ZZZY=            -56.9607 XXYY=          -3906.3038 XXZZ=          -2981.5706 YYZZ=          -2367.5273
 XXYZ=            110.9730 YYXZ=            -95.2336 ZZXY=           -152.0061
 N-N= 5.349662558136D+03 E-N=-1.599174659857D+04  KE= 2.251118454916D+03
 1\1\GINC-NC273\SP\RPBE1PBE\def2TZVP\C39H32O1P2\WALROTHR\12-Feb-2022\0\
 \# PBE1PBE/def2TZVP int=(grid=ultrafine) empiricaldispersion=GD3BJ nmr
 =giao\\XantPhos_5 title\\0,1\P,0,-1.4620568065,1.4944080069,-3.6695148
 714\C,0,-2.0736515974,1.6587610823,-1.9221004185\C,0,-3.4353258101,1.5
 234355096,-1.5786023119\C,0,-3.8378306284,1.6208308889,-0.2404118302\C
 ,0,-2.9060532225,1.8920370571,0.7780313334\C,0,-1.5530699447,2.1001978
 123,0.4733657466\C,0,-1.1884205097,1.9777237204,-0.8800347238\O,0,0.12
 65045192,2.1804832911,-1.2225212338\C,0,-0.4470807834,2.5218006772,1.4
 652336669\C,0,-0.8206046779,2.1800340757,2.9155707045\C,0,-0.244174749
 1,4.0584157575,1.3322095253\C,0,-1.8940083212,-0.1938898718,-4.2478384
 643\C,0,-2.7877125769,-1.0615183845,-3.5989969194\C,0,-3.1416462623,-2
 .2769002474,-4.2011468611\C,0,-2.6142572183,-2.6290957417,-5.451166933
 6\C,0,-1.7077665256,-1.7723132398,-6.0941097191\C,0,-1.3402467739,-0.5
 627284191,-5.492661105\C,0,-2.7298573125,2.5360849828,-4.507921643\C,0
 ,-3.6690857395,1.9963885922,-5.4035093605\C,0,-4.7170935997,4.17848522
 83,-5.6253728177\C,0,-4.659352424,2.8205687376,-5.9603379591\C,0,-3.77
 73310044,4.7189080106,-4.7332679214\C,0,-2.7835417096,3.9064915853,-4.
 180462397\H,0,-4.1759616227,1.3481089255,-2.3653795559\H,0,-3.25248068
 88,1.9655754389,1.8132379711\H,0,-4.8946253991,1.4975947958,0.01529258
 16\H,0,-0.9772608056,1.0967300227,3.0525926861\H,0,-1.7404173187,2.708
 8886178,3.2148078968\H,0,0.0361572632,4.3363352118,0.3035607255\H,0,-1
 .1751714519,4.5885718066,1.5966293606\H,0,-3.6340143489,0.9362524764,-
 5.6683898959\H,0,-5.4898189747,4.8193879993,-6.0623765636\H,0,-3.80813
 32681,5.7830994216,-4.4787842526\H,0,-2.0351860929,4.336636891,-3.5090
 248714\H,0,-3.1934307423,-0.8011445229,-2.6177715398\H,0,-3.8301839201
 ,-2.9539536884,-3.6849303819\H,0,-2.9009261305,-3.576139966,-5.9199685
 358\H,0,-1.2821866849,-2.0469071417,-7.0647726375\H,0,-0.6260788997,0.
 1101280162,-5.982790036\P,0,1.7191311091,0.3067298024,-2.6328876289\C,
 0,2.0772917828,0.8873799965,-0.9152262033\C,0,3.0803951315,0.415227718
 1,-0.0522587774\C,0,2.9764100138,0.6514557718,1.3273784673\C,0,1.85506
 23034,1.3011395258,1.8724191422\C,0,0.8543981364,1.8209975053,1.034324
 0234\C,0,1.0522299302,1.6559962223,-0.342435826\C,0,0.6562307548,-1.16
 99227674,-2.2592656596\C,0,-0.0561013446,-1.3288746252,-1.0563919434\C
 ,0,-0.8323394534,-2.476943089,-0.83816605\C,0,-0.9000036823,-3.4801292
 894,-1.8120387691\C,0,-0.199767923,-3.324403375,-3.0180059755\C,0,0.56
 53778387,-2.1767392625,-3.2445458365\C,0,3.2160132595,-0.5552250244,-3
 .2668013858\C,0,3.7039561117,-1.6884026436,-2.5790818207\C,0,5.4304434
 873,-1.9756292446,-4.2616456974\C,0,4.8153233089,-2.3847187358,-3.0690
 758812\C,0,4.9288844716,-0.8706055072,-4.9623195374\C,0,3.8273568455,-
 0.1572152438,-4.4694030094\H,0,3.9213736634,-0.1573968621,-0.453014424
 4\H,0,1.7663936056,1.3965275889,2.9586647263\H,0,3.7616910184,0.285188
 6714,1.9957044538\H,0,-0.0268459778,2.5087624035,3.6061403245\H,0,0.55
 95969265,4.3918290969,2.0106283553\H,0,3.1988306989,-2.0418797098,-1.6
 74545206\H,0,3.4518768136,0.7231130966,-4.9971694378\H,0,0.0087655768,
 -0.5747882665,-0.2679058921\H,0,-1.3735300781,-2.5877058506,0.10741024
 83\H,0,-1.4986223029,-4.3798775981,-1.6361829137\H,0,-0.2573515486,-4.
 0955718867,-3.7922303911\H,0,1.1107531203,-2.0671959108,-4.1867587969\
 H,0,5.3976654514,-0.5531353607,-5.8992020666\H,0,6.2949294573,-2.52543
 80531,-4.6481341688\H,0,5.1922908235,-3.2563210447,-2.5239729613\H,0,-
 5.3862172104,2.3928680889,-6.6586797638\\Version=ES64L-G09RevE.01\Stat
 e=1-A\HF=-2261.8873768\RMSD=6.333e-09\Dipole=-0.1887896,-0.6708578,0.8
 208813\Quadrupole=-0.8891025,-4.125011,5.0141135,-3.0056333,-2.9169622
 ,7.2193675\PG=C01 [X(C39H32O1P2)]\\@


    WHAT WE HAVE LEARNED
 IS LIKE A HANDFUL OF EARTH;
  WHAT WE HAVE YET TO LEARN
   IS LIKE THE WHOLE WORLD.

         -- AVVAYIAR
 Job cpu time:       1 days  9 hours 52 minutes  1.4 seconds.
 File lengths (MBytes):  RWF=   1320 Int=      0 D2E=      0 Chk=    168 Scr=      1
 Normal termination of Gaussian 09 at Sat Feb 12 14:52:10 2022.
 Initial command:
 /gstore/apps/gaussian/g09.e01-foss-2017a/g09/l1.exe "/local/29510745/Gau-10872.inp" -scrdir="/local/29510745/"
 Entering Link 1 = /gstore/apps/gaussian/g09.e01-foss-2017a/g09/l1.exe PID=     21822.
  
 Copyright (c) 1988,1990,1992,1993,1995,1998,2003,2009,2015,
            Gaussian, Inc.  All Rights Reserved.
  
 This is part of the Gaussian(R) 09 program.  It is based on
 the Gaussian(R) 03 system (copyright 2003, Gaussian, Inc.),
 the Gaussian(R) 98 system (copyright 1998, Gaussian, Inc.),
 the Gaussian(R) 94 system (copyright 1995, Gaussian, Inc.),
 the Gaussian 92(TM) system (copyright 1992, Gaussian, Inc.),
 the Gaussian 90(TM) system (copyright 1990, Gaussian, Inc.),
 the Gaussian 88(TM) system (copyright 1988, Gaussian, Inc.),
 the Gaussian 86(TM) system (copyright 1986, Carnegie Mellon
 University), and the Gaussian 82(TM) system (copyright 1983,
[...]
  1298. RY*(  22) C  57                  0.00000     3.51762   
  1299. RY*(  23) C  57                  0.00000     3.60032   
  1300. RY*(  24) C  57                  0.00000     3.34952   
  1301. RY*(  25) C  57                  0.00000     3.45234   
  1302. RY*(  26) C  57                  0.00000     3.56781   
  1303. RY*(   1) C  58                  0.00660     1.47996   
  1304. RY*(   2) C  58                  0.00190     1.23179   
  1305. RY*(   3) C  58                  0.00137     0.77351   
  1306. RY*(   4) C  58                  0.00091     1.67242   
  1307. RY*(   5) C  58                  0.00090     1.62946   
  1308. RY*(   6) C  58                  0.00032     3.00670   
  1309. RY*(   7) C  58                  0.00022     2.21783   
  1310. RY*(   8) C  58                  0.00010     2.09639   
  1311. RY*(   9) C  58                  0.00008     2.74986   
  1312. RY*(  10) C  58                  0.00005     1.52670   
  1313. RY*(  11) C  58                  0.00003     2.75772   
  1314. RY*(  12) C  58                  0.00002     2.61682   
  1315. RY*(  13) C  58                  0.00002     1.97402   
  1316. RY*(  14) C  58                  0.00002     1.98761   
  1317. RY*(  15) C  58                  0.00002     2.46483   
  1318. RY*(  16) C  58                  0.00000    21.15052   
  1319. RY*(  17) C  58                  0.00001     2.09506   
  1320. RY*(  18) C  58                  0.00000     3.13097   
  1321. RY*(  19) C  58                  0.00000     3.23865   
  1322. RY*(  20) C  58                  0.00000     3.17458   
  1323. RY*(  21) C  58                  0.00000     3.42499   
  1324. RY*(  22) C  58                  0.00000     3.30574   
  1325. RY*(  23) C  58                  0.00000     3.54893   
  1326. RY*(  24) C  58                  0.00000     2.97225   
  1327. RY*(  25) C  58                  0.00000     3.32838   
  1328. RY*(  26) C  58                  0.00000     3.39428   
  1329. RY*(   1) H  59                  0.00087     0.78014   
  1330. RY*(   2) H  59                  0.00027     2.36259   
  1331. RY*(   3) H  59                  0.00016     2.23885   
  1332. RY*(   4) H  59                  0.00010     2.83233   
  1333. RY*(   5) H  59                  0.00002     3.13598   
  1334. RY*(   1) H  60                  0.00046     1.39163   
  1335. RY*(   2) H  60                  0.00018     1.72733   
  1336. RY*(   3) H  60                  0.00016     2.18406   
  1337. RY*(   4) H  60                  0.00010     2.78359   
  1338. RY*(   5) H  60                  0.00002     3.08842   
  1339. RY*(   1) H  61                  0.00035     1.01990   
  1340. RY*(   2) H  61                  0.00019     1.88143   
  1341. RY*(   3) H  61                  0.00011     2.16128   
  1342. RY*(   4) H  61                  0.00009     2.79647   
  1343. RY*(   5) H  61                  0.00001     3.05603   
  1344. RY*(   1) H  62                  0.00053     0.98915   
  1345. RY*(   2) H  62                  0.00013     1.78857   
  1346. RY*(   3) H  62                  0.00009     2.12964   
  1347. RY*(   4) H  62                  0.00007     2.41756   
  1348. RY*(   5) H  62                  0.00001     2.98191   
  1349. RY*(   1) H  63                  0.00049     1.06414   
  1350. RY*(   2) H  63                  0.00011     1.56232   
  1351. RY*(   3) H  63                  0.00009     2.24376   
  1352. RY*(   4) H  63                  0.00006     2.40506   
  1353. RY*(   5) H  63                  0.00000     2.96784   
  1354. RY*(   1) H  64                  0.00144     0.71846   
  1355. RY*(   2) H  64                  0.00036     2.35785   
  1356. RY*(   3) H  64                  0.00015     2.24753   
  1357. RY*(   4) H  64                  0.00009     2.75162   
  1358. RY*(   5) H  64                  0.00003     3.19027   
  1359. RY*(   1) H  65                  0.00063     1.23239   
  1360. RY*(   2) H  65                  0.00018     1.73501   
  1361. RY*(   3) H  65                  0.00011     2.43222   
  1362. RY*(   4) H  65                  0.00012     2.49400   
  1363. RY*(   5) H  65                  0.00002     3.10001   
  1364. RY*(   1) H  66                  0.00121     0.81637   
  1365. RY*(   2) H  66                  0.00028     2.63711   
  1366. RY*(   3) H  66                  0.00023     2.37014   
  1367. RY*(   4) H  66                  0.00012     2.79783   
  1368. RY*(   5) H  66                  0.00002     3.33633   
  1369. RY*(   1) H  67                  0.00034     1.19416   
  1370. RY*(   2) H  67                  0.00019     1.83357   
  1371. RY*(   3) H  67                  0.00017     2.17235   
  1372. RY*(   4) H  67                  0.00011     2.75357   
  1373. RY*(   5) H  67                  0.00001     3.04045   
  1374. RY*(   1) H  68                  0.00031     1.06633   
  1375. RY*(   2) H  68                  0.00021     1.87343   
  1376. RY*(   3) H  68                  0.00015     2.16938   
  1377. RY*(   4) H  68                  0.00009     2.75973   
  1378. RY*(   5) H  68                  0.00001     3.07793   
  1379. RY*(   1) H  69                  0.00072     0.71842   
  1380. RY*(   2) H  69                  0.00023     2.22936   
  1381. RY*(   3) H  69                  0.00017     2.26183   
  1382. RY*(   4) H  69                  0.00010     2.82209   
  1383. RY*(   5) H  69                  0.00001     3.06981   
  1384. RY*(   1) H  70                  0.00120     0.55647   
  1385. RY*(   2) H  70                  0.00026     2.32744   
  1386. RY*(   3) H  70                  0.00022     2.29640   
  1387. RY*(   4) H  70                  0.00012     2.82608   
  1388. RY*(   5) H  70                  0.00002     3.19214   
  1389. RY*(   1) H  71                  0.00034     0.87531   
  1390. RY*(   2) H  71                  0.00020     1.87445   
  1391. RY*(   3) H  71                  0.00012     2.62135   
  1392. RY*(   4) H  71                  0.00011     2.23607   
  1393. RY*(   5) H  71                  0.00002     3.10125   
  1394. RY*(   1) H  72                  0.00033     0.85580   
  1395. RY*(   2) H  72                  0.00020     1.86712   
  1396. RY*(   3) H  72                  0.00011     2.15097   
  1397. RY*(   4) H  72                  0.00008     2.74766   
  1398. RY*(   5) H  72                  0.00002     3.09519   
  1399. RY*(   1) H  73                  0.00046     1.02012   
  1400. RY*(   2) H  73                  0.00018     1.80711   
  1401. RY*(   3) H  73                  0.00012     2.38302   
  1402. RY*(   4) H  73                  0.00012     2.46724   
  1403. RY*(   5) H  73                  0.00002     3.08808   
  1404. RY*(   1) H  74                  0.00040     0.98325   
  1405. RY*(   2) H  74                  0.00020     1.87247   
  1406. RY*(   3) H  74                  0.00012     2.55980   
  1407. RY*(   4) H  74                  0.00011     2.31715   
  1408. RY*(   5) H  74                  0.00002     3.09730   
  1409. BD*(   1) P   1 - C   2          0.03811     0.22063   
  1410. BD*(   1) P   1 - C  12          0.03608     0.23853   
  1411. BD*(   1) P   1 - C  18          0.04755     0.23789   
  1412. BD*(   1) C   2 - C   3          0.02682     0.52439   
  1413. BD*(   1) C   2 - C   7          0.03511     0.52027   
  1414. BD*(   2) C   2 - C   7          0.39050     0.02313  1421(v),1416(v),1478(r)
                                                    1451(r),1468(r),1410(v)
                                                    184(g),1411(v),313(g)
                                                    1473(r),1461(r)
  1415. BD*(   1) C   3 - C   4          0.01653     0.54388   
  1416. BD*(   2) C   3 - C   4          0.31867     0.02971  1421(v),1414(v),235(g)
                                                    1451(r)
  1417. BD*(   1) C   3 - H  24          0.01542     0.41436   
  1418. BD*(   1) C   4 - C   5          0.01333     0.53502   
  1419. BD*(   1) C   4 - H  26          0.01381     0.40299   
  1420. BD*(   1) C   5 - C   6          0.02062     0.53543   
  1421. BD*(   2) C   5 - C   6          0.34780     0.03031  1416(v),1414(v),1428(v)
                                                    261(g),1478(r)
  1422. BD*(   1) C   5 - H  25          0.01491     0.40218   
  1423. BD*(   1) C   6 - C   7          0.03925     0.51623   
  1424. BD*(   1) C   6 - C   9          0.03796     0.35479   
  1425. BD*(   1) C   7 - O   8          0.03341     0.34320   
  1426. BD*(   1) O   8 - C  46          0.03395     0.33330   
  1427. BD*(   1) C   9 - C  10          0.01872     0.33362   
  1428. BD*(   1) C   9 - C  11          0.02813     0.31182   
  1429. BD*(   1) C   9 - C  45          0.03820     0.35882   
  1430. BD*(   1) C  10 - H  27          0.00663     0.37040   
  1431. BD*(   1) C  10 - H  28          0.00703     0.36877   
  1432. BD*(   1) C  10 - H  62          0.00701     0.36898   
  1433. BD*(   1) C  11 - H  29          0.00644     0.38282   
  1434. BD*(   1) C  11 - H  30          0.00729     0.37171   
  1435. BD*(   1) C  11 - H  63          0.00729     0.37171   
  1436. BD*(   1) C  12 - C  13          0.03176     0.53857   
  1437. BD*(   2) C  12 - C  13          0.35961     0.03286  1447(v),1442(v),1480(r)
                                                    1411(v),469(g),1490(r)
                                                    444(g)
  1438. BD*(   1) C  12 - C  17          0.02313     0.52103   
  1439. BD*(   1) C  13 - C  14          0.01712     0.54870   
  1440. BD*(   1) C  13 - H  35          0.01722     0.42817   
  1441. BD*(   1) C  14 - C  15          0.01486     0.54209   
  1442. BD*(   2) C  14 - C  15          0.33117     0.03072  1447(v),1437(v),1485(r)
                                                    521(g),495(g)
  1443. BD*(   1) C  14 - H  36          0.01397     0.41117   
  1444. BD*(   1) C  15 - C  16          0.01496     0.53927   
  1445. BD*(   1) C  15 - H  37          0.01331     0.40878   
  1446. BD*(   1) C  16 - C  17          0.01677     0.54677   
  1447. BD*(   2) C  16 - C  17          0.32141     0.03147  1442(v),1437(v),547(g)
                                                    573(g),1490(r)
  1448. BD*(   1) C  16 - H  38          0.01378     0.40802   
  1449. BD*(   1) C  17 - H  39          0.01607     0.41324   
  1450. BD*(   1) C  18 - C  19          0.02702     0.54119   
  1451. BD*(   2) C  18 - C  19          0.36543     0.03519  1456(v),1461(v),1414(r)
                                                    625(g),1409(v),1416(r)
                                                    729(v)
  1452. BD*(   1) C  18 - C  23          0.02236     0.53147   
  1453. BD*(   1) C  19 - C  21          0.01652     0.55022   
  1454. BD*(   1) C  19 - H  31          0.01624     0.42536   
  1455. BD*(   1) C  20 - C  21          0.01464     0.54903   
  1456. BD*(   2) C  20 - C  21          0.33026     0.03513  1451(v),1461(v),651(g)
                                                    677(g)
  1457. BD*(   1) C  20 - C  22          0.01479     0.54341   
  1458. BD*(   1) C  20 - H  32          0.01314     0.41151   
  1459. BD*(   1) C  21 - H  74          0.01380     0.41158   
  1460. BD*(   1) C  22 - C  23          0.01538     0.55404   
  1461. BD*(   2) C  22 - C  23          0.31251     0.03802  1451(v),1456(v),703(g)
                                                    729(g)
  1462. BD*(   1) C  22 - H  33          0.01346     0.41132   
  1463. BD*(   1) C  23 - H  34          0.01598     0.41200   
  1464. BD*(   1) P  40 - C  41          0.04251     0.22008   
  1465. BD*(   1) P  40 - C  47          0.04440     0.22387   
  1466. BD*(   1) P  40 - C  53          0.03747     0.23848   
  1467. BD*(   1) C  41 - C  42          0.02569     0.53248   
  1468. BD*(   2) C  41 - C  42          0.37188     0.02352  1473(v),1478(v),1465(v)
                                                    1414(r),888(g)
  1469. BD*(   1) C  41 - C  46          0.03232     0.51466   
  1470. BD*(   1) C  42 - C  43          0.01566     0.53717   
  1471. BD*(   1) C  42 - H  59          0.01637     0.41257   
  1472. BD*(   1) C  43 - C  44          0.01302     0.53417   
  1473. BD*(   2) C  43 - C  44          0.34812     0.02348  1468(v),1478(v),915(g)
                                                    941(g),1414(r)
  1474. BD*(   1) C  43 - H  61          0.01349     0.40339   
  1475. BD*(   1) C  44 - C  45          0.02123     0.53151   
  1476. BD*(   1) C  44 - H  60          0.01480     0.40188   
  1477. BD*(   1) C  45 - C  46          0.03965     0.52248   
  1478. BD*(   2) C  45 - C  46          0.38187     0.02655  1473(v),1468(v),1414(r)
                                                    1428(v),1421(r),1424(v)
                                                    993(g),1425(v),941(v)
  1479. BD*(   1) C  47 - C  48          0.02651     0.54099   
  1480. BD*(   2) C  47 - C  48          0.37223     0.03670  1485(v),1490(v),1437(r)
                                                    1044(g),1495(r),1466(v)
                                                    1497(r),1019(g),1071(v)
  1481. BD*(   1) C  47 - C  52          0.02384     0.53265   
  1482. BD*(   1) C  48 - C  49          0.01661     0.55194   
  1483. BD*(   1) C  48 - H  66          0.01763     0.42862   
  1484. BD*(   1) C  49 - C  50          0.01481     0.55057   
  1485. BD*(   2) C  49 - C  50          0.33184     0.03680  1480(v),1490(v),1442(r)
                                                    1097(g),1071(g)
  1486. BD*(   1) C  49 - H  67          0.01383     0.41280   
  1487. BD*(   1) C  50 - C  51          0.01516     0.54773   
  1488. BD*(   1) C  50 - H  68          0.01346     0.41395   
  1489. BD*(   1) C  51 - C  52          0.01641     0.56034   
  1490. BD*(   2) C  51 - C  52          0.30710     0.04379  1485(v),1480(v),1123(g)
                                                    1497(r),1437(r),1447(r)
  1491. BD*(   1) C  51 - H  69          0.01398     0.41409   
  1492. BD*(   1) C  52 - H  70          0.01620     0.42583   
  1493. BD*(   1) C  53 - C  54          0.03209     0.51717   
  1494. BD*(   1) C  53 - C  58          0.02388     0.52786   
  1495. BD*(   2) C  53 - C  58          0.35263     0.02607  1501(v),1497(v),1305(g)
                                                    1480(r),1464(v),1465(v)
                                                    1176(g)
  1496. BD*(   1) C  54 - C  56          0.01812     0.54557   
  1497. BD*(   2) C  54 - C  56          0.30665     0.03037  1495(v),1501(v),1253(g)
                                                    1490(r),1480(r)
  1498. BD*(   1) C  54 - H  64          0.01555     0.41671   
  1499. BD*(   1) C  55 - C  56          0.01480     0.53503   
  1500. BD*(   1) C  55 - C  57          0.01464     0.53690   
  1501. BD*(   2) C  55 - C  57          0.32320     0.02524  1495(v),1497(v),1227(g)
                                                    1279(g)
  1502. BD*(   1) C  55 - H  72          0.01298     0.40306   
  1503. BD*(   1) C  56 - H  73          0.01429     0.40185   
  1504. BD*(   1) C  57 - C  58          0.01583     0.53832   
  1505. BD*(   1) C  57 - H  71          0.01338     0.40344   
  1506. BD*(   1) C  58 - H  65          0.01568     0.41059   
       -------------------------------
              Total Lewis  295.61714  ( 97.2425%)
        Valence non-Lewis    7.79508  (  2.5642%)
        Rydberg non-Lewis    0.58779  (  0.1934%)
       -------------------------------
            Total unit  1  304.00000  (100.0000%)
           Charge unit  1    0.00000
 1\1\GINC-NC273\SP\RPBE1PBE\def2TZVP\C39H32O1P2\WALROTHR\12-Feb-2022\0\
 \# PBE1PBE/def2TZVP int=(grid=ultrafine) empiricaldispersion=GD3BJ pop
 =nbo guess=read geom=check\\XantPhos_5 title\\0,1\P,0,-1.4620568065,1.
 4944080069,-3.6695148714\C,0,-2.0736515974,1.6587610823,-1.9221004185\
 C,0,-3.4353258101,1.5234355096,-1.5786023119\C,0,-3.8378306284,1.62083
 08889,-0.2404118302\C,0,-2.9060532225,1.8920370571,0.7780313334\C,0,-1
 .5530699447,2.1001978123,0.4733657466\C,0,-1.1884205097,1.9777237204,-
 0.8800347238\O,0,0.1265045192,2.1804832911,-1.2225212338\C,0,-0.447080
 7834,2.5218006772,1.4652336669\C,0,-0.8206046779,2.1800340757,2.915570
 7045\C,0,-0.2441747491,4.0584157575,1.3322095253\C,0,-1.8940083212,-0.
 1938898718,-4.2478384643\C,0,-2.7877125769,-1.0615183845,-3.5989969194
 \C,0,-3.1416462623,-2.2769002474,-4.2011468611\C,0,-2.6142572183,-2.62
 90957417,-5.4511669336\C,0,-1.7077665256,-1.7723132398,-6.0941097191\C
 ,0,-1.3402467739,-0.5627284191,-5.492661105\C,0,-2.7298573125,2.536084
 9828,-4.507921643\C,0,-3.6690857395,1.9963885922,-5.4035093605\C,0,-4.
 7170935997,4.1784852283,-5.6253728177\C,0,-4.659352424,2.8205687376,-5
 .9603379591\C,0,-3.7773310044,4.7189080106,-4.7332679214\C,0,-2.783541
 7096,3.9064915853,-4.180462397\H,0,-4.1759616227,1.3481089255,-2.36537
 95559\H,0,-3.2524806888,1.9655754389,1.8132379711\H,0,-4.8946253991,1.
 4975947958,0.0152925816\H,0,-0.9772608056,1.0967300227,3.0525926861\H,
 0,-1.7404173187,2.7088886178,3.2148078968\H,0,0.0361572632,4.336335211
 8,0.3035607255\H,0,-1.1751714519,4.5885718066,1.5966293606\H,0,-3.6340
 143489,0.9362524764,-5.6683898959\H,0,-5.4898189747,4.8193879993,-6.06
 23765636\H,0,-3.8081332681,5.7830994216,-4.4787842526\H,0,-2.035186092
 9,4.336636891,-3.5090248714\H,0,-3.1934307423,-0.8011445229,-2.6177715
 398\H,0,-3.8301839201,-2.9539536884,-3.6849303819\H,0,-2.9009261305,-3
 .576139966,-5.9199685358\H,0,-1.2821866849,-2.0469071417,-7.0647726375
 \H,0,-0.6260788997,0.1101280162,-5.982790036\P,0,1.7191311091,0.306729
 8024,-2.6328876289\C,0,2.0772917828,0.8873799965,-0.9152262033\C,0,3.0
 803951315,0.4152277181,-0.0522587774\C,0,2.9764100138,0.6514557718,1.3
 273784673\C,0,1.8550623034,1.3011395258,1.8724191422\C,0,0.8543981364,
 1.8209975053,1.0343240234\C,0,1.0522299302,1.6559962223,-0.342435826\C
 ,0,0.6562307548,-1.1699227674,-2.2592656596\C,0,-0.0561013446,-1.32887
 46252,-1.0563919434\C,0,-0.8323394534,-2.476943089,-0.83816605\C,0,-0.
 9000036823,-3.4801292894,-1.8120387691\C,0,-0.199767923,-3.324403375,-
 3.0180059755\C,0,0.5653778387,-2.1767392625,-3.2445458365\C,0,3.216013
 2595,-0.5552250244,-3.2668013858\C,0,3.7039561117,-1.6884026436,-2.579
 0818207\C,0,5.4304434873,-1.9756292446,-4.2616456974\C,0,4.8153233089,
 -2.3847187358,-3.0690758812\C,0,4.9288844716,-0.8706055072,-4.96231953
 74\C,0,3.8273568455,-0.1572152438,-4.4694030094\H,0,3.9213736634,-0.15
 73968621,-0.4530144244\H,0,1.7663936056,1.3965275889,2.9586647263\H,0,
 3.7616910184,0.2851886714,1.9957044538\H,0,-0.0268459778,2.5087624035,
 3.6061403245\H,0,0.5595969265,4.3918290969,2.0106283553\H,0,3.19883069
 89,-2.0418797098,-1.674545206\H,0,3.4518768136,0.7231130966,-4.9971694
 378\H,0,0.0087655768,-0.5747882665,-0.2679058921\H,0,-1.3735300781,-2.
 5877058506,0.1074102483\H,0,-1.4986223029,-4.3798775981,-1.6361829137\
 H,0,-0.2573515486,-4.0955718867,-3.7922303911\H,0,1.1107531203,-2.0671
 959108,-4.1867587969\H,0,5.3976654514,-0.5531353607,-5.8992020666\H,0,
 6.2949294573,-2.5254380531,-4.6481341688\H,0,5.1922908235,-3.256321044
 7,-2.5239729613\H,0,-5.3862172104,2.3928680889,-6.6586797638\\Version=
 ES64L-G09RevE.01\State=1-A\HF=-2261.8873768\RMSD=5.446e-09\Dipole=-0.1
 887891,-0.6708584,0.820879\Quadrupole=-0.8890915,-4.1250157,5.0141072,
 -3.005641,-2.9169566,7.2193663\PG=C01 [X(C39H32O1P2)]\\@


 WE LEARN WISDOM FROM FAILURE MUCH MORE THAN FROM SUCCESS.
 WE DISCOVER WHAT WILL DO BY FINDING OUT WHAT WILL NOT DO...
 AND HE WHO NEVER MADE A MISTAKE NEVER MADE A DISCOVERY
 Job cpu time:       0 days  3 hours 45 minutes  8.7 seconds.
 File lengths (MBytes):  RWF=   1164 Int=      0 D2E=      0 Chk=    168 Scr=      1
 Normal termination of Gaussian 09 at Sat Feb 12 15:06:24 2022.
