 Entering Gaussian System, Link 0=g09
 Input=XantPhos_4.com
 Output=XantPhos_4.log
 Initial command:
 /gstore/apps/gaussian/g09.e01-foss-2017a/g09/l1.exe "/local/21251496/Gau-14152.inp" -scrdir="/local/21251496/"
 Entering Link 1 = /gstore/apps/gaussian/g09.e01-foss-2017a/g09/l1.exe PID=     14153.
  
 Copyright (c) 1988,1990,1992,1993,1995,1998,2003,2009,2015,
            Gaussian, Inc.  All Rights Reserved.
  
 This is part of the Gaussian(R) 09 program.  It is based on
 the Gaussian(R) 03 system (copyright 2003, Gaussian, Inc.),
 the Gaussian(R) 98 system (copyright 1998, Gaussian, Inc.),
 the Gaussian(R) 94 system (copyright 1995, Gaussian, Inc.),
 the Gaussian 92(TM) system (copyright 1992, Gaussian, Inc.),
 the Gaussian 90(TM) system (copyright 1990, Gaussian, Inc.),
 the Gaussian 88(TM) system (copyright 1988, Gaussian, Inc.),
 the Gaussian 86(TM) system (copyright 1986, Carnegie Mellon
 University), and the Gaussian 82(TM) system (copyright 1983,
 Carnegie Mellon University). Gaussian is a federally registered
 trademark of Gaussian, Inc.
  
 This software contains proprietary and confidential information,
 including trade secrets, belonging to Gaussian, Inc.
  
 This software is provided under written license and may be
 used, copied, transmitted, or stored only in accord with that
 written license.
  
 The following legend is applicable only to US Government
 contracts under FAR:
  
                    RESTRICTED RIGHTS LEGEND
  
 Use, reproduction and disclosure by the US Government is
 subject to restrictions as set forth in subparagraphs (a)
 and (c) of the Commercial Computer Software - Restricted
 Rights clause in FAR 52.227-19.
  
 Gaussian, Inc.
 340 Quinnipiac St., Bldg. 40, Wallingford CT 06492
  
  
 ---------------------------------------------------------------
 Warning -- This program may not be used in any manner that
 competes with the business of Gaussian, Inc. or will provide
 assistance to any competitor of Gaussian, Inc.  The licensee
 of this program is prohibited from giving any competitor of
 Gaussian, Inc. access to this program.  By using this program,
 the user acknowledges that Gaussian, Inc. is engaged in the
 business of creating and licensing software in the field of
 computational chemistry and represents and warrants to the
 licensee that it is not a competitor of Gaussian, Inc. and that
 it will not use this program in any manner prohibited above.
 ---------------------------------------------------------------
  

 Cite this work as:
 Gaussian 09, Revision E.01,
 M. J. Frisch, G. W. Trucks, H. B. Schlegel, G. E. Scuseria, 
 M. A. Robb, J. R. Cheeseman, G. Scalmani, V. Barone, B. Mennucci, 
 G. A. Petersson, H. Nakatsuji, M. Caricato, X. Li, H. P. Hratchian, 
 A. F. Izmaylov, J. Bloino, G. Zheng, J. L. Sonnenberg, M. Hada, 
 M. Ehara, K. Toyota, R. Fukuda, J. Hasegawa, M. Ishida, T. Nakajima, 
 Y. Honda, O. Kitao, H. Nakai, T. Vreven, J. A. Montgomery, Jr., 
 J. E. Peralta, F. Ogliaro, M. Bearpark, J. J. Heyd, E. Brothers, 
 K. N. Kudin, V. N. Staroverov, T. Keith, R. Kobayashi, J. Normand, 
 K. Raghavachari, A. Rendell, J. C. Burant, S. S. Iyengar, J. Tomasi, 
 M. Cossi, N. Rega, J. M. Millam, M. Klene, J. E. Knox, J. B. Cross, 
 V. Bakken, C. Adamo, J. Jaramillo, R. Gomperts, R. E. Stratmann, 
 O. Yazyev, A. J. Austin, R. Cammi, C. Pomelli, J. W. Ochterski, 
 R. L. Martin, K. Morokuma, V. G. Zakrzewski, G. A. Voth, 
 P. Salvador, J. J. Dannenberg, S. Dapprich, A. D. Daniels, 
 O. Farkas, J. B. Foresman, J. V. Ortiz, J. Cioslowski, 
 and D. J. Fox, Gaussian, Inc., Wallingford CT, 2013.
 
 ******************************************
 Gaussian 09:  ES64L-G09RevE.01 30-Nov-2015
                17-Nov-2021 
 ******************************************
 %nprocs=14
 Will use up to   14 processors via shared memory.
 %mem=128GB
 %chk=XantPhos_4.chk
 ----------------------------------------------------------------------
 # PBEPBE gen 6D pseudo=read scf=maxcycles=500 denfit int=(grid=ultrafi
 ne) empiricaldispersion=GD3BJ opt freq=noraman
 ----------------------------------------------------------------------
 1/14=-1,18=20,19=15,26=4,38=1/1,3;
 2/9=110,12=2,17=6,18=5,40=1/2;
 3/5=7,8=2,11=2,16=1,17=8,25=1,30=1,71=1,74=1009,75=-5,82=47,124=41/1,2,3;
 4//1;
 5/5=2,7=500,38=5/2;
 6/7=2,8=2,9=2,10=2,28=1/1;
 7//1,2,3,16;
 1/14=-1,18=20,19=15,26=4/3(2);
 2/9=110/2;
 99//99;
 2/9=110/2;
 3/5=7,6=1,8=2,11=2,16=1,17=8,25=1,30=1,71=1,74=1009,75=-5,82=7,124=41/1,2,3;
 4/5=5,16=3,69=1/1;
 5/5=2,7=500,38=5/2;
 7//1,2,3,16;
 1/14=-1,18=20,19=15,26=4/3(-5);
 2/9=110/2;
 6/7=2,8=2,9=2,10=2,19=2,28=1/1;
 99/9=1/99;
 --------
 XantPhos
 --------
 Symbolic Z-matrix:
 Charge =  0 Multiplicity = 1
 P                    -1.5563    1.5035   -3.5716 
 C                    -2.1357    1.916    -1.8323 
 C                    -3.4928    2.0436   -1.4701 
 C                    -3.8495    2.3761   -0.148 
 C                    -2.8555    2.572     0.8325 
 C                    -1.4884    2.4474    0.4914 
 C                    -1.1577    2.1546   -0.8523 
 O                     0.1546    2.0685   -1.2094 
 C                    -0.3279    2.5809    1.5033 
 C                    -0.7996    2.2733    2.9455 
 C                     0.209     4.0224    1.4668 
 C                    -2.1596   -0.1988   -4.0651 
 C                    -3.2771   -0.8098   -3.4559 
 C                    -3.7225   -2.077    -3.8798 
 C                    -3.0529   -2.7477   -4.9199 
 C                    -1.9391   -2.1477   -5.5355 
 C                    -1.4984   -0.8797   -5.11 
 C                    -2.7337    2.5992   -4.5517 
 C                    -2.9641    3.9306   -4.1384 
 C                    -4.4986    4.2861   -5.9984 
 C                    -3.84      4.7699   -4.8535 
 C                    -4.276     2.9642   -6.4252 
 C                    -3.3982    2.1288   -5.7071 
 H                    -4.2639    1.9026   -2.2141 
 H                    -3.1668    2.811     1.8369 
 H                    -4.8926    2.4763    0.1162 
 H                    -1.1922    1.259     3.0264 
 H                    -1.5753    2.9618    3.2779 
 H                     0.5558    4.2926    0.4687 
 H                    -0.5616    4.7401    1.7493 
 H                    -2.4589    4.3169   -3.2649 
 H                    -5.1691    4.9287   -6.5504 
 H                    -4.7767    2.5895   -7.3061 
 H                    -3.2428    1.1196   -6.0575 
 H                    -3.8023   -0.3143   -2.6557 
 H                    -4.5763   -2.5359   -3.4031 
 H                    -3.3907   -3.7218   -5.2422 
 H                    -1.4218   -2.6611   -6.3327 
 H                    -0.6477   -0.4261   -5.5962 
 P                     1.6823    0.0524   -2.6781 
 C                     1.7958    0.3965   -0.8363 
 C                     2.5606   -0.3631    0.0731 
 C                     2.4948   -0.0952    1.4551 
 C                     1.6115    0.886     1.9501 
 C                     0.7901    1.6141    1.0577 
 C                     0.9419    1.3876   -0.3292 
 C                     0.6658   -1.5309   -2.5207 
 C                     0.9947   -2.7168   -3.2171 
 C                     0.2411   -3.8944   -3.0462 
 C                    -0.8536   -3.9094   -2.1643 
 C                    -1.1892   -2.7436   -1.4546 
 C                    -0.4357   -1.5681   -1.6348 
 C                     3.404    -0.4567   -3.2588 
 C                     3.5636   -1.0088   -4.5495 
 C                     5.9758   -1.1614   -4.2399 
 C                     4.8349   -1.3711   -5.0349 
 C                     5.8403   -0.5732   -2.9696 
 C                     4.5654   -0.2141   -2.4905 
 H                     3.1843   -1.1688   -0.2863 
 H                     1.5537    1.031     3.0171 
 H                     3.0935   -0.6756    2.1424 
 H                     0.0063    2.3811    3.6702 
 H                     1.0497    4.1499    2.1492 
 H                     2.7007   -1.1515   -5.183 
 H                     4.4973    0.2759   -1.5322 
 H                     1.8389   -2.7542   -3.883 
 H                     0.5083   -4.7894   -3.5887 
 H                    -1.4336   -4.811    -2.0324 
 H                    -2.0298   -2.7455   -0.7765 
 H                    -0.7168   -0.6877   -1.0776 
 H                     6.7163   -0.383    -2.3665 
 H                     6.9538   -1.4317   -4.6111 
 H                     4.9362   -1.7996   -6.0215 
 H                    -4.0019    5.7862   -4.5249 
 Pd                    0.7981    1.9262   -3.9457 
 Cl                    3.0071    2.5479   -4.3891 
 Cl                    0.2029    3.7829   -5.2315 
 

 GradGradGradGradGradGradGradGradGradGradGradGradGradGradGradGradGradGrad
 Berny optimization.
 Initialization pass.
                           ----------------------------
                           !    Initial Parameters    !
                           ! (Angstroms and Degrees)  !
 --------------------------                            --------------------------
 ! Name  Definition              Value          Derivative Info.                !
 --------------------------------------------------------------------------------
 ! R1    R(1,2)                  1.8791         estimate D2E/DX2                !
 ! R2    R(1,12)                 1.8723         estimate D2E/DX2                !
 ! R3    R(1,18)                 1.8835         estimate D2E/DX2                !
 ! R4    R(1,75)                 2.4211         estimate D2E/DX2                !
 ! R5    R(2,3)                  1.4104         estimate D2E/DX2                !
 ! R6    R(2,7)                  1.4049         estimate D2E/DX2                !
 ! R7    R(3,4)                  1.4092         estimate D2E/DX2                !
 ! R8    R(3,24)                 1.0807         estimate D2E/DX2                !
 ! R9    R(4,5)                  1.4099         estimate D2E/DX2                !
 ! R10   R(4,26)                 1.0807         estimate D2E/DX2                !
 ! R11   R(5,6)                  1.4145         estimate D2E/DX2                !
 ! R12   R(5,25)                 1.0784         estimate D2E/DX2                !
 ! R13   R(6,7)                  1.4144         estimate D2E/DX2                !
 ! R14   R(6,9)                  1.5455         estimate D2E/DX2                !
 ! R15   R(7,8)                  1.3627         estimate D2E/DX2                !
 ! R16   R(8,46)                 1.3632         estimate D2E/DX2                !
 ! R17   R(9,10)                 1.5482         estimate D2E/DX2                !
 ! R18   R(9,11)                 1.5387         estimate D2E/DX2                !
 ! R19   R(9,45)                 1.5438         estimate D2E/DX2                !
 ! R20   R(10,27)                1.0906         estimate D2E/DX2                !
 ! R21   R(10,28)                1.0891         estimate D2E/DX2                !
 ! R22   R(10,62)                1.0892         estimate D2E/DX2                !
 ! R23   R(11,29)                1.0906         estimate D2E/DX2                !
 ! R24   R(11,30)                1.0903         estimate D2E/DX2                !
 ! R25   R(11,63)                1.0903         estimate D2E/DX2                !
 ! R26   R(12,13)                1.4118         estimate D2E/DX2                !
 ! R27   R(12,17)                1.4116         estimate D2E/DX2                !
 ! R28   R(13,14)                1.4085         estimate D2E/DX2                !
 ! R29   R(13,35)                1.0778         estimate D2E/DX2                !
 ! R30   R(14,15)                1.4071         estimate D2E/DX2                !
 ! R31   R(14,36)                1.0802         estimate D2E/DX2                !
 ! R32   R(15,16)                1.407          estimate D2E/DX2                !
 ! R33   R(15,37)                1.0802         estimate D2E/DX2                !
 ! R34   R(16,17)                1.4082         estimate D2E/DX2                !
 ! R35   R(16,38)                1.0801         estimate D2E/DX2                !
 ! R36   R(17,39)                1.0797         estimate D2E/DX2                !
 ! R37   R(18,19)                1.413          estimate D2E/DX2                !
 ! R38   R(18,23)                1.4134         estimate D2E/DX2                !
 ! R39   R(19,21)                1.4082         estimate D2E/DX2                !
 ! R40   R(19,31)                1.0805         estimate D2E/DX2                !
 ! R41   R(20,21)                1.4066         estimate D2E/DX2                !
 ! R42   R(20,22)                1.4068         estimate D2E/DX2                !
 ! R43   R(20,32)                1.0804         estimate D2E/DX2                !
 ! R44   R(21,74)                1.0803         estimate D2E/DX2                !
 ! R45   R(22,23)                1.4086         estimate D2E/DX2                !
 ! R46   R(22,33)                1.0803         estimate D2E/DX2                !
 ! R47   R(23,34)                1.0795         estimate D2E/DX2                !
 ! R48   R(40,41)                1.8771         estimate D2E/DX2                !
 ! R49   R(40,47)                1.8881         estimate D2E/DX2                !
 ! R50   R(40,53)                1.887          estimate D2E/DX2                !
 ! R51   R(40,75)                2.4289         estimate D2E/DX2                !
 ! R52   R(41,42)                1.4103         estimate D2E/DX2                !
 ! R53   R(41,46)                1.4031         estimate D2E/DX2                !
 ! R54   R(42,43)                1.4093         estimate D2E/DX2                !
 ! R55   R(42,59)                1.0804         estimate D2E/DX2                !
 ! R56   R(43,44)                1.41           estimate D2E/DX2                !
 ! R57   R(43,61)                1.0806         estimate D2E/DX2                !
 ! R58   R(44,45)                1.4146         estimate D2E/DX2                !
 ! R59   R(44,60)                1.0784         estimate D2E/DX2                !
 ! R60   R(45,46)                1.4134         estimate D2E/DX2                !
 ! R61   R(47,48)                1.414          estimate D2E/DX2                !
 ! R62   R(47,52)                1.414          estimate D2E/DX2                !
 ! R63   R(48,49)                1.4085         estimate D2E/DX2                !
 ! R64   R(48,66)                1.0759         estimate D2E/DX2                !
 ! R65   R(49,50)                1.4058         estimate D2E/DX2                !
 ! R66   R(49,67)                1.0802         estimate D2E/DX2                !
 ! R67   R(50,51)                1.4055         estimate D2E/DX2                !
 ! R68   R(50,68)                1.0801         estimate D2E/DX2                !
 ! R69   R(51,52)                1.4078         estimate D2E/DX2                !
 ! R70   R(51,69)                1.08           estimate D2E/DX2                !
 ! R71   R(52,70)                1.0792         estimate D2E/DX2                !
 ! R72   R(53,54)                1.4129         estimate D2E/DX2                !
 ! R73   R(53,58)                1.4135         estimate D2E/DX2                !
 ! R74   R(54,56)                1.4082         estimate D2E/DX2                !
 ! R75   R(54,64)                1.0799         estimate D2E/DX2                !
 ! R76   R(55,56)                1.4063         estimate D2E/DX2                !
 ! R77   R(55,57)                1.4064         estimate D2E/DX2                !
 ! R78   R(55,72)                1.0804         estimate D2E/DX2                !
 ! R79   R(56,73)                1.0804         estimate D2E/DX2                !
 ! R80   R(57,58)                1.4085         estimate D2E/DX2                !
 ! R81   R(57,71)                1.0804         estimate D2E/DX2                !
 ! R82   R(58,65)                1.0785         estimate D2E/DX2                !
 ! R83   R(75,76)                2.3373         estimate D2E/DX2                !
 ! R84   R(75,77)                2.3356         estimate D2E/DX2                !
 ! A1    A(2,1,12)             110.1337         estimate D2E/DX2                !
 ! A2    A(2,1,18)              99.2766         estimate D2E/DX2                !
 ! A3    A(2,1,75)             113.862          estimate D2E/DX2                !
 ! A4    A(12,1,18)            100.9727         estimate D2E/DX2                !
 ! A5    A(12,1,75)            115.5542         estimate D2E/DX2                !
 ! A6    A(18,1,75)            115.2093         estimate D2E/DX2                !
 ! A7    A(1,2,3)              123.6592         estimate D2E/DX2                !
 ! A8    A(1,2,7)              117.9233         estimate D2E/DX2                !
 ! A9    A(3,2,7)              118.3802         estimate D2E/DX2                !
 ! A10   A(2,3,4)              120.3881         estimate D2E/DX2                !
 ! A11   A(2,3,24)             119.8636         estimate D2E/DX2                !
 ! A12   A(4,3,24)             119.7397         estimate D2E/DX2                !
 ! A13   A(3,4,5)              120.451          estimate D2E/DX2                !
 ! A14   A(3,4,26)             119.7073         estimate D2E/DX2                !
 ! A15   A(5,4,26)             119.8409         estimate D2E/DX2                !
 ! A16   A(4,5,6)              120.0958         estimate D2E/DX2                !
 ! A17   A(4,5,25)             118.3606         estimate D2E/DX2                !
 ! A18   A(6,5,25)             121.5427         estimate D2E/DX2                !
 ! A19   A(5,6,7)              118.2479         estimate D2E/DX2                !
 ! A20   A(5,6,9)              124.0719         estimate D2E/DX2                !
 ! A21   A(7,6,9)              117.6663         estimate D2E/DX2                !
 ! A22   A(2,7,6)              122.3482         estimate D2E/DX2                !
 ! A23   A(2,7,8)              118.479          estimate D2E/DX2                !
 ! A24   A(6,7,8)              119.1547         estimate D2E/DX2                !
 ! A25   A(7,8,46)             114.7419         estimate D2E/DX2                !
 ! A26   A(6,9,10)             111.3439         estimate D2E/DX2                !
 ! A27   A(6,9,11)             109.1116         estimate D2E/DX2                !
 ! A28   A(6,9,45)             107.5007         estimate D2E/DX2                !
 ! A29   A(10,9,11)            108.3328         estimate D2E/DX2                !
 ! A30   A(10,9,45)            111.4134         estimate D2E/DX2                !
 ! A31   A(11,9,45)            109.0967         estimate D2E/DX2                !
 ! A32   A(9,10,27)            111.3178         estimate D2E/DX2                !
 ! A33   A(9,10,28)            112.0667         estimate D2E/DX2                !
 ! A34   A(9,10,62)            112.0059         estimate D2E/DX2                !
 ! A35   A(27,10,28)           107.9922         estimate D2E/DX2                !
 ! A36   A(27,10,62)           108.0017         estimate D2E/DX2                !
 ! A37   A(28,10,62)           105.15           estimate D2E/DX2                !
 ! A38   A(9,11,29)            111.3931         estimate D2E/DX2                !
 ! A39   A(9,11,30)            111.3414         estimate D2E/DX2                !
 ! A40   A(9,11,63)            111.332          estimate D2E/DX2                !
 ! A41   A(29,11,30)           107.3846         estimate D2E/DX2                !
 ! A42   A(29,11,63)           107.3753         estimate D2E/DX2                !
 ! A43   A(30,11,63)           107.8088         estimate D2E/DX2                !
 ! A44   A(1,12,13)            122.3308         estimate D2E/DX2                !
 ! A45   A(1,12,17)            118.8652         estimate D2E/DX2                !
 ! A46   A(13,12,17)           118.7773         estimate D2E/DX2                !
 ! A47   A(12,13,14)           120.6501         estimate D2E/DX2                !
 ! A48   A(12,13,35)           120.4708         estimate D2E/DX2                !
 ! A49   A(14,13,35)           118.8789         estimate D2E/DX2                !
 ! A50   A(13,14,15)           120.0534         estimate D2E/DX2                !
 ! A51   A(13,14,36)           119.9568         estimate D2E/DX2                !
 ! A52   A(15,14,36)           119.9893         estimate D2E/DX2                !
 ! A53   A(14,15,16)           119.7925         estimate D2E/DX2                !
 ! A54   A(14,15,37)           120.1029         estimate D2E/DX2                !
 ! A55   A(16,15,37)           120.1041         estimate D2E/DX2                !
 ! A56   A(15,16,17)           119.9687         estimate D2E/DX2                !
 ! A57   A(15,16,38)           119.9578         estimate D2E/DX2                !
 ! A58   A(17,16,38)           120.0733         estimate D2E/DX2                !
 ! A59   A(12,17,16)           120.7574         estimate D2E/DX2                !
 ! A60   A(12,17,39)           119.9816         estimate D2E/DX2                !
 ! A61   A(16,17,39)           119.2602         estimate D2E/DX2                !
 ! A62   A(1,18,19)            119.8599         estimate D2E/DX2                !
 ! A63   A(1,18,23)            121.7125         estimate D2E/DX2                !
 ! A64   A(19,18,23)           118.4268         estimate D2E/DX2                !
 ! A65   A(18,19,21)           120.9632         estimate D2E/DX2                !
 ! A66   A(18,19,31)           119.8087         estimate D2E/DX2                !
 ! A67   A(21,19,31)           119.2271         estimate D2E/DX2                !
 ! A68   A(21,20,22)           119.7375         estimate D2E/DX2                !
 ! A69   A(21,20,32)           120.1238         estimate D2E/DX2                !
 ! A70   A(22,20,32)           120.138          estimate D2E/DX2                !
 ! A71   A(19,21,20)           119.971          estimate D2E/DX2                !
 ! A72   A(19,21,74)           119.964          estimate D2E/DX2                !
 ! A73   A(20,21,74)           120.0644         estimate D2E/DX2                !
 ! A74   A(20,22,23)           120.081          estimate D2E/DX2                !
 ! A75   A(20,22,33)           119.9967         estimate D2E/DX2                !
 ! A76   A(23,22,33)           119.9221         estimate D2E/DX2                !
 ! A77   A(18,23,22)           120.8194         estimate D2E/DX2                !
 ! A78   A(18,23,34)           120.5822         estimate D2E/DX2                !
 ! A79   A(22,23,34)           118.5985         estimate D2E/DX2                !
 ! A80   A(41,40,47)            95.9971         estimate D2E/DX2                !
 ! A81   A(41,40,53)           107.2321         estimate D2E/DX2                !
 ! A82   A(41,40,75)           113.1197         estimate D2E/DX2                !
 ! A83   A(47,40,53)           106.8958         estimate D2E/DX2                !
 ! A84   A(47,40,75)           119.6327         estimate D2E/DX2                !
 ! A85   A(53,40,75)           112.3137         estimate D2E/DX2                !
 ! A86   A(40,41,42)           124.5246         estimate D2E/DX2                !
 ! A87   A(40,41,46)           116.5718         estimate D2E/DX2                !
 ! A88   A(42,41,46)           118.5192         estimate D2E/DX2                !
 ! A89   A(41,42,43)           120.3079         estimate D2E/DX2                !
 ! A90   A(41,42,59)           120.0139         estimate D2E/DX2                !
 ! A91   A(43,42,59)           119.6649         estimate D2E/DX2                !
 ! A92   A(42,43,44)           120.386          estimate D2E/DX2                !
 ! A93   A(42,43,61)           119.7199         estimate D2E/DX2                !
 ! A94   A(44,43,61)           119.8397         estimate D2E/DX2                !
 ! A95   A(43,44,45)           120.0306         estimate D2E/DX2                !
 ! A96   A(43,44,60)           118.3286         estimate D2E/DX2                !
 ! A97   A(45,44,60)           121.5914         estimate D2E/DX2                !
 ! A98   A(9,45,44)            124.1077         estimate D2E/DX2                !
 ! A99   A(9,45,46)            117.4748         estimate D2E/DX2                !
 ! A100  A(44,45,46)           118.3038         estimate D2E/DX2                !
 ! A101  A(8,46,41)            118.0969         estimate D2E/DX2                !
 ! A102  A(8,46,45)            119.4395         estimate D2E/DX2                !
 ! A103  A(41,46,45)           122.2215         estimate D2E/DX2                !
 ! A104  A(40,47,48)           122.4795         estimate D2E/DX2                !
 ! A105  A(40,47,52)           119.582          estimate D2E/DX2                !
 ! A106  A(48,47,52)           117.8831         estimate D2E/DX2                !
 ! A107  A(47,48,49)           121.1295         estimate D2E/DX2                !
 ! A108  A(47,48,66)           121.0969         estimate D2E/DX2                !
 ! A109  A(49,48,66)           117.7661         estimate D2E/DX2                !
 ! A110  A(48,49,50)           120.1103         estimate D2E/DX2                !
 ! A111  A(48,49,67)           119.9644         estimate D2E/DX2                !
 ! A112  A(50,49,67)           119.9241         estimate D2E/DX2                !
 ! A113  A(49,50,51)           119.5939         estimate D2E/DX2                !
 ! A114  A(49,50,68)           120.2415         estimate D2E/DX2                !
 ! A115  A(51,50,68)           120.1646         estimate D2E/DX2                !
 ! A116  A(50,51,52)           120.0094         estimate D2E/DX2                !
 ! A117  A(50,51,69)           120.0944         estimate D2E/DX2                !
 ! A118  A(52,51,69)           119.8944         estimate D2E/DX2                !
 ! A119  A(47,52,51)           121.2702         estimate D2E/DX2                !
 ! A120  A(47,52,70)           120.3264         estimate D2E/DX2                !
 ! A121  A(51,52,70)           118.4034         estimate D2E/DX2                !
 ! A122  A(40,53,54)           119.3162         estimate D2E/DX2                !
 ! A123  A(40,53,58)           122.419          estimate D2E/DX2                !
 ! A124  A(54,53,58)           118.0861         estimate D2E/DX2                !
 ! A125  A(53,54,56)           121.158          estimate D2E/DX2                !
 ! A126  A(53,54,64)           119.8187         estimate D2E/DX2                !
 ! A127  A(56,54,64)           119.0218         estimate D2E/DX2                !
 ! A128  A(56,55,57)           119.657          estimate D2E/DX2                !
 ! A129  A(56,55,72)           120.188          estimate D2E/DX2                !
 ! A130  A(57,55,72)           120.1428         estimate D2E/DX2                !
 ! A131  A(54,56,55)           119.9458         estimate D2E/DX2                !
 ! A132  A(54,56,73)           120.0961         estimate D2E/DX2                !
 ! A133  A(55,56,73)           119.9545         estimate D2E/DX2                !
 ! A134  A(55,57,58)           120.0704         estimate D2E/DX2                !
 ! A135  A(55,57,71)           119.9802         estimate D2E/DX2                !
 ! A136  A(58,57,71)           119.9431         estimate D2E/DX2                !
 ! A137  A(53,58,57)           121.0021         estimate D2E/DX2                !
 ! A138  A(53,58,65)           120.6026         estimate D2E/DX2                !
 ! A139  A(57,58,65)           118.3753         estimate D2E/DX2                !
 ! A140  A(1,75,40)             97.971          estimate D2E/DX2                !
 ! A141  A(1,75,77)             88.627          estimate D2E/DX2                !
 ! A142  A(40,75,76)            87.7164         estimate D2E/DX2                !
 ! A143  A(76,75,77)            85.6964         estimate D2E/DX2                !
 ! A144  L(1,75,76,77,-1)      174.3234         estimate D2E/DX2                !
 ! A145  L(40,75,77,76,-1)     173.4129         estimate D2E/DX2                !
 ! A146  L(1,75,76,77,-2)      178.6762         estimate D2E/DX2                !
 ! A147  L(40,75,77,76,-2)     179.4468         estimate D2E/DX2                !
 ! D1    D(12,1,2,3)           -63.3204         estimate D2E/DX2                !
 ! D2    D(12,1,2,7)           118.9377         estimate D2E/DX2                !
 ! D3    D(18,1,2,3)            42.0642         estimate D2E/DX2                !
 ! D4    D(18,1,2,7)          -135.6776         estimate D2E/DX2                !
 ! D5    D(75,1,2,3)           165.0316         estimate D2E/DX2                !
 ! D6    D(75,1,2,7)           -12.7103         estimate D2E/DX2                !
 ! D7    D(2,1,12,13)           22.5776         estimate D2E/DX2                !
 ! D8    D(2,1,12,17)         -159.3266         estimate D2E/DX2                !
 ! D9    D(18,1,12,13)         -81.6617         estimate D2E/DX2                !
 ! D10   D(18,1,12,17)          96.4342         estimate D2E/DX2                !
 ! D11   D(75,1,12,13)         153.3363         estimate D2E/DX2                !
 ! D12   D(75,1,12,17)         -28.5679         estimate D2E/DX2                !
 ! D13   D(2,1,18,19)           44.7242         estimate D2E/DX2                !
 ! D14   D(2,1,18,23)         -135.6135         estimate D2E/DX2                !
 ! D15   D(12,1,18,19)         157.4883         estimate D2E/DX2                !
 ! D16   D(12,1,18,23)         -22.8494         estimate D2E/DX2                !
 ! D17   D(75,1,18,19)         -77.2771         estimate D2E/DX2                !
 ! D18   D(75,1,18,23)         102.3852         estimate D2E/DX2                !
 ! D19   D(2,1,75,40)           73.4786         estimate D2E/DX2                !
 ! D20   D(2,1,75,77)         -106.9261         estimate D2E/DX2                !
 ! D21   D(12,1,75,40)         -55.4754         estimate D2E/DX2                !
 ! D22   D(12,1,75,77)         124.1198         estimate D2E/DX2                !
 ! D23   D(18,1,75,40)        -172.7515         estimate D2E/DX2                !
 ! D24   D(18,1,75,77)           6.8438         estimate D2E/DX2                !
 ! D25   D(1,2,3,4)           -178.9997         estimate D2E/DX2                !
 ! D26   D(1,2,3,24)            -0.0647         estimate D2E/DX2                !
 ! D27   D(7,2,3,4)             -1.2675         estimate D2E/DX2                !
 ! D28   D(7,2,3,24)           177.6674         estimate D2E/DX2                !
 ! D29   D(1,2,7,6)           -178.7672         estimate D2E/DX2                !
 ! D30   D(1,2,7,8)             -0.3285         estimate D2E/DX2                !
 ! D31   D(3,2,7,6)              3.3691         estimate D2E/DX2                !
 ! D32   D(3,2,7,8)           -178.1922         estimate D2E/DX2                !
 ! D33   D(2,3,4,5)             -0.6504         estimate D2E/DX2                !
 ! D34   D(2,3,4,26)           179.6691         estimate D2E/DX2                !
 ! D35   D(24,3,4,5)          -179.5866         estimate D2E/DX2                !
 ! D36   D(24,3,4,26)            0.7328         estimate D2E/DX2                !
 ! D37   D(3,4,5,6)              0.5704         estimate D2E/DX2                !
 ! D38   D(3,4,5,25)          -179.1069         estimate D2E/DX2                !
 ! D39   D(26,4,5,6)          -179.7495         estimate D2E/DX2                !
 ! D40   D(26,4,5,25)            0.5732         estimate D2E/DX2                !
 ! D41   D(4,5,6,7)              1.4081         estimate D2E/DX2                !
 ! D42   D(4,5,6,9)           -177.2005         estimate D2E/DX2                !
 ! D43   D(25,5,6,7)          -178.9251         estimate D2E/DX2                !
 ! D44   D(25,5,6,9)             2.4663         estimate D2E/DX2                !
 ! D45   D(5,6,7,2)             -3.4409         estimate D2E/DX2                !
 ! D46   D(5,6,7,8)            178.1306         estimate D2E/DX2                !
 ! D47   D(9,6,7,2)            175.2578         estimate D2E/DX2                !
 ! D48   D(9,6,7,8)             -3.1707         estimate D2E/DX2                !
 ! D49   D(5,6,9,10)            23.878          estimate D2E/DX2                !
 ! D50   D(5,6,9,11)           -95.6468         estimate D2E/DX2                !
 ! D51   D(5,6,9,45)           146.1688         estimate D2E/DX2                !
 ! D52   D(7,6,9,10)          -154.7381         estimate D2E/DX2                !
 ! D53   D(7,6,9,11)            85.7371         estimate D2E/DX2                !
 ! D54   D(7,6,9,45)           -32.4473         estimate D2E/DX2                !
 ! D55   D(2,7,8,46)          -135.3634         estimate D2E/DX2                !
 ! D56   D(6,7,8,46)            43.1262         estimate D2E/DX2                !
 ! D57   D(7,8,46,41)          131.2546         estimate D2E/DX2                !
 ! D58   D(7,8,46,45)          -43.2195         estimate D2E/DX2                !
 ! D59   D(6,9,10,27)           59.9585         estimate D2E/DX2                !
 ! D60   D(6,9,10,28)          -61.1044         estimate D2E/DX2                !
 ! D61   D(6,9,10,62)         -179.0089         estimate D2E/DX2                !
 ! D62   D(11,9,10,27)         179.945          estimate D2E/DX2                !
 ! D63   D(11,9,10,28)          58.8821         estimate D2E/DX2                !
 ! D64   D(11,9,10,62)         -59.0224         estimate D2E/DX2                !
 ! D65   D(45,9,10,27)         -60.0446         estimate D2E/DX2                !
 ! D66   D(45,9,10,28)         178.8925         estimate D2E/DX2                !
 ! D67   D(45,9,10,62)          60.988          estimate D2E/DX2                !
 ! D68   D(6,9,11,29)          -58.5941         estimate D2E/DX2                !
 ! D69   D(6,9,11,30)           61.2461         estimate D2E/DX2                !
 ! D70   D(6,9,11,63)         -178.4162         estimate D2E/DX2                !
 ! D71   D(10,9,11,29)        -179.9672         estimate D2E/DX2                !
 ! D72   D(10,9,11,30)         -60.1269         estimate D2E/DX2                !
 ! D73   D(10,9,11,63)          60.2107         estimate D2E/DX2                !
 ! D74   D(45,9,11,29)          58.5841         estimate D2E/DX2                !
 ! D75   D(45,9,11,30)         178.4244         estimate D2E/DX2                !
 ! D76   D(45,9,11,63)         -61.238          estimate D2E/DX2                !
 ! D77   D(6,9,45,44)         -143.6438         estimate D2E/DX2                !
 ! D78   D(6,9,45,46)           32.4052         estimate D2E/DX2                !
 ! D79   D(10,9,45,44)         -21.3961         estimate D2E/DX2                !
 ! D80   D(10,9,45,46)         154.6529         estimate D2E/DX2                !
 ! D81   D(11,9,45,44)          98.1622         estimate D2E/DX2                !
 ! D82   D(11,9,45,46)         -85.7889         estimate D2E/DX2                !
 ! D83   D(1,12,13,14)         178.2689         estimate D2E/DX2                !
 ! D84   D(1,12,13,35)          -1.9025         estimate D2E/DX2                !
 ! D85   D(17,12,13,14)          0.1714         estimate D2E/DX2                !
 ! D86   D(17,12,13,35)       -179.9999         estimate D2E/DX2                !
 ! D87   D(1,12,17,16)        -178.4363         estimate D2E/DX2                !
 ! D88   D(1,12,17,39)           1.2279         estimate D2E/DX2                !
 ! D89   D(13,12,17,16)         -0.2719         estimate D2E/DX2                !
 ! D90   D(13,12,17,39)        179.3922         estimate D2E/DX2                !
 ! D91   D(12,13,14,15)          0.006          estimate D2E/DX2                !
 ! D92   D(12,13,14,36)        179.7504         estimate D2E/DX2                !
 ! D93   D(35,13,14,15)       -179.8254         estimate D2E/DX2                !
 ! D94   D(35,13,14,36)         -0.0809         estimate D2E/DX2                !
 ! D95   D(13,14,15,16)         -0.0866         estimate D2E/DX2                !
 ! D96   D(13,14,15,37)        179.6851         estimate D2E/DX2                !
 ! D97   D(36,14,15,16)       -179.831          estimate D2E/DX2                !
 ! D98   D(36,14,15,37)         -0.0592         estimate D2E/DX2                !
 ! D99   D(14,15,16,17)         -0.0127         estimate D2E/DX2                !
 ! D100  D(14,15,16,38)        179.8672         estimate D2E/DX2                !
 ! D101  D(37,15,16,17)       -179.7845         estimate D2E/DX2                !
 ! D102  D(37,15,16,38)          0.0954         estimate D2E/DX2                !
 ! D103  D(15,16,17,12)          0.1947         estimate D2E/DX2                !
 ! D104  D(15,16,17,39)       -179.4718         estimate D2E/DX2                !
 ! D105  D(38,16,17,12)       -179.6851         estimate D2E/DX2                !
 ! D106  D(38,16,17,39)          0.6484         estimate D2E/DX2                !
 ! D107  D(1,18,19,21)        -179.975          estimate D2E/DX2                !
 ! D108  D(1,18,19,31)           0.3828         estimate D2E/DX2                !
 ! D109  D(23,18,19,21)          0.3516         estimate D2E/DX2                !
 ! D110  D(23,18,19,31)       -179.2906         estimate D2E/DX2                !
 ! D111  D(1,18,23,22)         179.9366         estimate D2E/DX2                !
 ! D112  D(1,18,23,34)          -0.0532         estimate D2E/DX2                !
 ! D113  D(19,18,23,22)         -0.3964         estimate D2E/DX2                !
 ! D114  D(19,18,23,34)        179.6138         estimate D2E/DX2                !
 ! D115  D(18,19,21,20)         -0.0939         estimate D2E/DX2                !
 ! D116  D(18,19,21,74)       -179.8066         estimate D2E/DX2                !
 ! D117  D(31,19,21,20)        179.5504         estimate D2E/DX2                !
 ! D118  D(31,19,21,74)         -0.1623         estimate D2E/DX2                !
 ! D119  D(22,20,21,19)         -0.1267         estimate D2E/DX2                !
 ! D120  D(22,20,21,74)        179.5857         estimate D2E/DX2                !
 ! D121  D(32,20,21,19)       -179.8375         estimate D2E/DX2                !
 ! D122  D(32,20,21,74)         -0.1251         estimate D2E/DX2                !
 ! D123  D(21,20,22,23)          0.082          estimate D2E/DX2                !
 ! D124  D(21,20,22,33)       -179.7659         estimate D2E/DX2                !
 ! D125  D(32,20,22,23)        179.7928         estimate D2E/DX2                !
 ! D126  D(32,20,22,33)         -0.0551         estimate D2E/DX2                !
 ! D127  D(20,22,23,18)          0.1842         estimate D2E/DX2                !
 ! D128  D(20,22,23,34)       -179.8258         estimate D2E/DX2                !
 ! D129  D(33,22,23,18)       -179.9678         estimate D2E/DX2                !
 ! D130  D(33,22,23,34)          0.0222         estimate D2E/DX2                !
 ! D131  D(47,40,41,42)         70.5621         estimate D2E/DX2                !
 ! D132  D(47,40,41,46)       -102.1912         estimate D2E/DX2                !
 ! D133  D(53,40,41,42)        -39.2264         estimate D2E/DX2                !
 ! D134  D(53,40,41,46)        148.0203         estimate D2E/DX2                !
 ! D135  D(75,40,41,42)       -163.6049         estimate D2E/DX2                !
 ! D136  D(75,40,41,46)         23.6419         estimate D2E/DX2                !
 ! D137  D(41,40,47,48)       -132.5            estimate D2E/DX2                !
 ! D138  D(41,40,47,52)         44.7366         estimate D2E/DX2                !
 ! D139  D(53,40,47,48)        -22.4268         estimate D2E/DX2                !
 ! D140  D(53,40,47,52)        154.8098         estimate D2E/DX2                !
 ! D141  D(75,40,47,48)        106.5709         estimate D2E/DX2                !
 ! D142  D(75,40,47,52)        -76.1925         estimate D2E/DX2                !
 ! D143  D(41,40,53,54)        168.5109         estimate D2E/DX2                !
 ! D144  D(41,40,53,58)        -16.4433         estimate D2E/DX2                !
 ! D145  D(47,40,53,54)         66.4745         estimate D2E/DX2                !
 ! D146  D(47,40,53,58)       -118.4798         estimate D2E/DX2                !
 ! D147  D(75,40,53,54)        -66.6219         estimate D2E/DX2                !
 ! D148  D(75,40,53,58)        108.4239         estimate D2E/DX2                !
 ! D149  D(41,40,75,1)         -82.7301         estimate D2E/DX2                !
 ! D150  D(41,40,75,76)         95.9888         estimate D2E/DX2                !
 ! D151  D(47,40,75,1)          29.2048         estimate D2E/DX2                !
 ! D152  D(47,40,75,76)       -152.0762         estimate D2E/DX2                !
 ! D153  D(53,40,75,1)         155.7089         estimate D2E/DX2                !
 ! D154  D(53,40,75,76)        -25.5722         estimate D2E/DX2                !
 ! D155  D(40,41,42,43)       -174.6855         estimate D2E/DX2                !
 ! D156  D(40,41,42,59)          3.9782         estimate D2E/DX2                !
 ! D157  D(46,41,42,43)         -2.0626         estimate D2E/DX2                !
 ! D158  D(46,41,42,59)        176.6012         estimate D2E/DX2                !
 ! D159  D(40,41,46,8)          -3.3987         estimate D2E/DX2                !
 ! D160  D(40,41,46,45)        170.9124         estimate D2E/DX2                !
 ! D161  D(42,41,46,8)        -176.606          estimate D2E/DX2                !
 ! D162  D(42,41,46,45)         -2.2949         estimate D2E/DX2                !
 ! D163  D(41,42,43,44)          3.3882         estimate D2E/DX2                !
 ! D164  D(41,42,43,61)       -179.299          estimate D2E/DX2                !
 ! D165  D(59,42,43,44)       -175.2802         estimate D2E/DX2                !
 ! D166  D(59,42,43,61)          2.0326         estimate D2E/DX2                !
 ! D167  D(42,43,44,45)         -0.3751         estimate D2E/DX2                !
 ! D168  D(42,43,44,60)        177.11           estimate D2E/DX2                !
 ! D169  D(61,43,44,45)       -177.6847         estimate D2E/DX2                !
 ! D170  D(61,43,44,60)         -0.1997         estimate D2E/DX2                !
 ! D171  D(43,44,45,9)         172.2079         estimate D2E/DX2                !
 ! D172  D(43,44,45,46)         -3.8107         estimate D2E/DX2                !
 ! D173  D(60,44,45,9)          -5.1932         estimate D2E/DX2                !
 ! D174  D(60,44,45,46)        178.7883         estimate D2E/DX2                !
 ! D175  D(9,45,46,8)            3.1736         estimate D2E/DX2                !
 ! D176  D(9,45,46,41)        -171.0636         estimate D2E/DX2                !
 ! D177  D(44,45,46,8)         179.4583         estimate D2E/DX2                !
 ! D178  D(44,45,46,41)          5.2211         estimate D2E/DX2                !
 ! D179  D(40,47,48,49)        177.9726         estimate D2E/DX2                !
 ! D180  D(40,47,48,66)         -1.0092         estimate D2E/DX2                !
 ! D181  D(52,47,48,49)          0.6915         estimate D2E/DX2                !
 ! D182  D(52,47,48,66)       -178.2904         estimate D2E/DX2                !
 ! D183  D(40,47,52,51)       -177.7492         estimate D2E/DX2                !
 ! D184  D(40,47,52,70)          2.1761         estimate D2E/DX2                !
 ! D185  D(48,47,52,51)         -0.3865         estimate D2E/DX2                !
 ! D186  D(48,47,52,70)        179.5388         estimate D2E/DX2                !
 ! D187  D(47,48,49,50)         -0.4738         estimate D2E/DX2                !
 ! D188  D(47,48,49,67)        179.9184         estimate D2E/DX2                !
 ! D189  D(66,48,49,50)        178.5409         estimate D2E/DX2                !
 ! D190  D(66,48,49,67)         -1.0669         estimate D2E/DX2                !
 ! D191  D(48,49,50,51)         -0.0687         estimate D2E/DX2                !
 ! D192  D(48,49,50,68)        179.936          estimate D2E/DX2                !
 ! D193  D(67,49,50,51)        179.5393         estimate D2E/DX2                !
 ! D194  D(67,49,50,68)         -0.456          estimate D2E/DX2                !
 ! D195  D(49,50,51,52)          0.3698         estimate D2E/DX2                !
 ! D196  D(49,50,51,69)        179.8763         estimate D2E/DX2                !
 ! D197  D(68,50,51,52)       -179.6349         estimate D2E/DX2                !
 ! D198  D(68,50,51,69)         -0.1283         estimate D2E/DX2                !
 ! D199  D(50,51,52,47)         -0.1383         estimate D2E/DX2                !
 ! D200  D(50,51,52,70)        179.935          estimate D2E/DX2                !
 ! D201  D(69,51,52,47)       -179.6458         estimate D2E/DX2                !
 ! D202  D(69,51,52,70)          0.4275         estimate D2E/DX2                !
 ! D203  D(40,53,54,56)        178.4001         estimate D2E/DX2                !
 ! D204  D(40,53,54,64)         -1.1454         estimate D2E/DX2                !
 ! D205  D(58,53,54,56)          3.1399         estimate D2E/DX2                !
 ! D206  D(58,53,54,64)       -176.4056         estimate D2E/DX2                !
 ! D207  D(40,53,58,57)       -178.2027         estimate D2E/DX2                !
 ! D208  D(40,53,58,65)          0.1451         estimate D2E/DX2                !
 ! D209  D(54,53,58,57)         -3.0989         estimate D2E/DX2                !
 ! D210  D(54,53,58,65)        175.2488         estimate D2E/DX2                !
 ! D211  D(53,54,56,55)         -1.2035         estimate D2E/DX2                !
 ! D212  D(53,54,56,73)        179.4866         estimate D2E/DX2                !
 ! D213  D(64,54,56,55)        178.3456         estimate D2E/DX2                !
 ! D214  D(64,54,56,73)         -0.9644         estimate D2E/DX2                !
 ! D215  D(57,55,56,54)         -0.8541         estimate D2E/DX2                !
 ! D216  D(57,55,56,73)        178.4569         estimate D2E/DX2                !
 ! D217  D(72,55,56,54)       -179.5832         estimate D2E/DX2                !
 ! D218  D(72,55,56,73)         -0.2722         estimate D2E/DX2                !
 ! D219  D(56,55,57,58)          0.8906         estimate D2E/DX2                !
 ! D220  D(56,55,57,71)       -178.1986         estimate D2E/DX2                !
 ! D221  D(72,55,57,58)        179.6202         estimate D2E/DX2                !
 ! D222  D(72,55,57,71)          0.5311         estimate D2E/DX2                !
 ! D223  D(55,57,58,53)          1.1278         estimate D2E/DX2                !
 ! D224  D(55,57,58,65)       -177.2559         estimate D2E/DX2                !
 ! D225  D(71,57,58,53)       -179.7827         estimate D2E/DX2                !
 ! D226  D(71,57,58,65)          1.8336         estimate D2E/DX2                !
 --------------------------------------------------------------------------------
 Trust Radius=3.00D-01 FncErr=1.00D-07 GrdErr=1.00D-06
 Number of steps in this run=    462 maximum allowed number of steps=    462.
 GradGradGradGradGradGradGradGradGradGradGradGradGradGradGradGradGradGrad

 Stoichiometry    C39H32Cl2OP2Pd
 Framework group  C1[X(C39H32Cl2OP2Pd)]
 Deg. of freedom   225
 Full point group                 C1      NOp   1
 Largest Abelian subgroup         C1      NOp   1
 Largest concise Abelian subgroup C1      NOp   1
                         Standard orientation:                         
 ---------------------------------------------------------------------
 Center     Atomic      Atomic             Coordinates (Angstroms)
 Number     Number       Type             X           Y           Z
 ---------------------------------------------------------------------
      1         15           0       -1.753617   -0.547591   -0.023739
      2          6           0       -2.119808    1.260933    0.331462
      3          6           0       -3.312363    1.713477    0.933300
      4          6           0       -3.524264    3.089818    1.148991
      5          6           0       -2.541711    4.030698    0.778683
      6          6           0       -1.337625    3.598605    0.175103
      7          6           0       -1.169482    2.215419   -0.068102
      8          8           0       -0.033208    1.782889   -0.683623
      9          6           0       -0.175119    4.541423   -0.209858
     10          6           0       -0.198445    5.838767    0.634781
     11          6           0       -0.309520    4.927239   -1.693299
     12          6           0       -1.666856   -1.514097    1.577410
     13          6           0       -2.290908   -1.068762    2.762943
     14          6           0       -2.233494   -1.842084    3.938760
     15          6           0       -1.549463   -3.071762    3.940767
     16          6           0       -0.925268   -3.526400    2.764672
     17          6           0       -0.986898   -2.751072    1.590722
     18          6           0       -3.440970   -1.077512   -0.671387
     19          6           0       -4.127850   -0.259888   -1.596705
     20          6           0       -5.984783   -1.836730   -1.674407
     21          6           0       -5.390668   -0.633289   -2.095559
     22          6           0       -5.311318   -2.663820   -0.757076
     23          6           0       -4.047893   -2.286456   -0.261650
     24          1           0       -4.076109    1.002775    1.215447
     25          1           0       -2.732814    5.074134    0.972514
     26          1           0       -4.444407    3.424840    1.606152
     27          1           0       -0.106825    5.620455    1.699408
     28          1           0       -1.115160    6.407659    0.485688
     29          1           0       -0.299339    4.046160   -2.336010
     30          1           0       -1.243185    5.457580   -1.882331
     31          1           0       -3.679361    0.663476   -1.933921
     32          1           0       -6.952367   -2.126891   -2.057549
     33          1           0       -5.762043   -3.590833   -0.433689
     34          1           0       -3.551207   -2.940466    0.439055
     35          1           0       -2.817491   -0.128569    2.783462
     36          1           0       -2.711527   -1.488693    4.840650
     37          1           0       -1.500601   -3.663077    4.843439
     38          1           0       -0.397641   -4.468905    2.763784
     39          1           0       -0.511154   -3.114968    0.692346
     40         15           0        1.898570   -0.315254   -0.034290
     41          6           0        2.195805    1.534020    0.089610
     42          6           0        3.362399    2.122261    0.620602
     43          6           0        3.447199    3.520572    0.774087
     44          6           0        2.342141    4.340206    0.465791
     45          6           0        1.141609    3.761198   -0.008212
     46          6           0        1.114960    2.366717   -0.237446
     47          6           0        1.688620   -0.605940    1.819438
     48          6           0        2.349616   -1.652088    2.503665
     49          6           0        2.205585   -1.817319    3.895001
     50          6           0        1.402194   -0.929161    4.631261
     51          6           0        0.746138    0.123708    3.970619
     52          6           0        0.889240    0.279464    2.578751
     53          6           0        3.534773   -1.112272   -0.532536
     54          6           0        3.669457   -2.516990   -0.463111
     55          6           0        5.934431   -2.393394   -1.353317
     56          6           0        4.861439   -3.155010   -0.857050
     57          6           0        5.802244   -0.998052   -1.469710
     58          6           0        4.607240   -0.366822   -1.073006
     59          1           0        4.188210    1.499074    0.932046
     60          1           0        2.427338    5.400946    0.640224
     61          1           0        4.349910    3.962133    1.171357
     62          1           0        0.606585    6.519064    0.360178
     63          1           0        0.510346    5.571735   -2.011337
     64          1           0        2.845286   -3.118663   -0.109538
     65          1           0        4.518429    0.698445   -1.215823
     66          1           0        2.992338   -2.338747    1.981264
     67          1           0        2.718174   -2.623880    4.398428
     68          1           0        1.289428   -1.054511    5.698150
     69          1           0        0.125360    0.809555    4.528006
     70          1           0        0.373143    1.096150    2.097855
     71          1           0        6.612504   -0.411144   -1.877510
     72          1           0        6.848292   -2.879502   -1.662983
     73          1           0        4.948716   -4.229724   -0.789024
     74          1           0       -5.900142    0.002566   -2.804911
     75         46           0        0.092138   -0.891272   -1.552430
     76         17           0        1.712368   -1.231505   -3.202246
     77         17           0       -1.453659   -1.504597   -3.192316
 ---------------------------------------------------------------------
 Rotational constants (GHZ):      0.0739883      0.0606987      0.0540107
 General basis read from cards:  (6D, 7F)
 ======================================================================================================
                                       Pseudopotential Parameters
 ======================================================================================================
  Center     Atomic      Valence      Angular      Power
  Number     Number     Electrons     Momentum     of R      Exponent        Coefficient   SO-Coeffient
 ======================================================================================================
    1         15
                                   No pseudopotential on this center.
    2          6
                                   No pseudopotential on this center.
    3          6
                                   No pseudopotential on this center.
    4          6
                                   No pseudopotential on this center.
    5          6
                                   No pseudopotential on this center.
    6          6
                                   No pseudopotential on this center.
    7          6
                                   No pseudopotential on this center.
    8          8
                                   No pseudopotential on this center.
    9          6
                                   No pseudopotential on this center.
   10          6
                                   No pseudopotential on this center.
   11          6
                                   No pseudopotential on this center.
   12          6
                                   No pseudopotential on this center.
   13          6
                                   No pseudopotential on this center.
   14          6
                                   No pseudopotential on this center.
   15          6
                                   No pseudopotential on this center.
   16          6
                                   No pseudopotential on this center.
   17          6
                                   No pseudopotential on this center.
   18          6
                                   No pseudopotential on this center.
   19          6
                                   No pseudopotential on this center.
   20          6
                                   No pseudopotential on this center.
   21          6
                                   No pseudopotential on this center.
   22          6
                                   No pseudopotential on this center.
   23          6
                                   No pseudopotential on this center.
   24          1
                                   No pseudopotential on this center.
   25          1
                                   No pseudopotential on this center.
   26          1
                                   No pseudopotential on this center.
   27          1
                                   No pseudopotential on this center.
   28          1
                                   No pseudopotential on this center.
   29          1
                                   No pseudopotential on this center.
   30          1
                                   No pseudopotential on this center.
   31          1
                                   No pseudopotential on this center.
   32          1
                                   No pseudopotential on this center.
   33          1
                                   No pseudopotential on this center.
   34          1
                                   No pseudopotential on this center.
   35          1
                                   No pseudopotential on this center.
   36          1
                                   No pseudopotential on this center.
   37          1
                                   No pseudopotential on this center.
   38          1
                                   No pseudopotential on this center.
   39          1
                                   No pseudopotential on this center.
   40         15
                                   No pseudopotential on this center.
   41          6
                                   No pseudopotential on this center.
   42          6
                                   No pseudopotential on this center.
   43          6
                                   No pseudopotential on this center.
   44          6
                                   No pseudopotential on this center.
   45          6
                                   No pseudopotential on this center.
   46          6
                                   No pseudopotential on this center.
   47          6
                                   No pseudopotential on this center.
   48          6
                                   No pseudopotential on this center.
   49          6
                                   No pseudopotential on this center.
   50          6
                                   No pseudopotential on this center.
   51          6
                                   No pseudopotential on this center.
   52          6
                                   No pseudopotential on this center.
   53          6
                                   No pseudopotential on this center.
   54          6
                                   No pseudopotential on this center.
   55          6
                                   No pseudopotential on this center.
   56          6
                                   No pseudopotential on this center.
   57          6
                                   No pseudopotential on this center.
   58          6
                                   No pseudopotential on this center.
   59          1
                                   No pseudopotential on this center.
   60          1
                                   No pseudopotential on this center.
   61          1
                                   No pseudopotential on this center.
   62          1
                                   No pseudopotential on this center.
   63          1
                                   No pseudopotential on this center.
   64          1
                                   No pseudopotential on this center.
   65          1
                                   No pseudopotential on this center.
   66          1
                                   No pseudopotential on this center.
   67          1
                                   No pseudopotential on this center.
   68          1
                                   No pseudopotential on this center.
   69          1
                                   No pseudopotential on this center.
   70          1
                                   No pseudopotential on this center.
   71          1
                                   No pseudopotential on this center.
   72          1
                                   No pseudopotential on this center.
   73          1
                                   No pseudopotential on this center.
   74          1
                                   No pseudopotential on this center.
   75         46           18
                                      F and up 
                                                     0      598.3336444       -0.05631770    0.00000000
                                                     1      162.4298290      -20.12880360    0.00000000
                                                     2       51.5714771     -105.81979230    0.00000000
                                                     2       16.4888260      -42.57333450    0.00000000
                                                     2        5.8287656       -3.61650860    0.00000000
                                      S - F
                                                     0       73.3806304        3.00036510    0.00000000
                                                     1       14.7550438       32.43500930    0.00000000
                                                     2       17.8350204      459.08303830    0.00000000
                                                     2       12.7111477     -868.06290290    0.00000000
                                                     2        9.3292063      514.47260980    0.00000000
                                      P - F
                                                     0       55.6689877        4.95930990    0.00000000
                                                     1       64.2337771       21.17110290    0.00000000
                                                     2       17.6254952      605.05600920    0.00000000
                                                     2       11.9058155     -726.96418460    0.00000000
                                                     2        8.5100832      396.32748830    0.00000000
                                      D - F
                                                     0       49.9994728        3.05087450    0.00000000
                                                     1       39.7477547       22.25065800    0.00000000
                                                     2       11.4321366      674.83576980    0.00000000
                                                     2        9.1790080    -1040.85540480    0.00000000
                                                     2        7.5624429      505.93751470    0.00000000
   76         17
                                   No pseudopotential on this center.
   77         17
                                   No pseudopotential on this center.
 ======================================================================================================
 There are   764 symmetry adapted cartesian basis functions of A   symmetry.
 There are   764 symmetry adapted basis functions of A   symmetry.
   764 basis functions,  1505 primitive gaussians,   764 cartesian basis functions
   178 alpha electrons      178 beta electrons
       nuclear repulsion energy      7081.0301551874 Hartrees.
 NAtoms=   77 NActive=   77 NUniq=   77 SFac= 1.00D+00 NAtFMM=   60 NAOKFM=T Big=T
 Integral buffers will be    131072 words long.
 Raffenetti 2 integral format.
 Two-electron integral symmetry is turned on.
 Nuclear repulsion after empirical dispersion term =     7080.8752839704 Hartrees.
 Standard density basis: Auto (5D, 7F)
  3340 Density fitting functions
 There are  3340 symmetry adapted density basis functions of A   symmetry.
 One-electron integrals computed using PRISM.
   1 Symmetry operations used in ECPInt.
 ECPInt:  NShTT=   31878 NPrTT=  214492 LenC2=   24597 LenP2D=   82837.
 LDataN:  DoStor=T MaxTD1= 5 Len=  102
 NBasis=   764 RedAO= T EigKep=  3.82D-04  NBF=   764
 NBsUse=   764 1.00D-06 EigRej= -1.00D+00 NBFU=   764
 NBasis=      764 NBas6D=      764 NTT=      292230   NTT6D=   292230
 NDBShl=      660 NDBF=       3340 NDBF6D=     3940  NNucDB=        0
 IDenFi=        2 ISolve=        0 FullAP=F BlkAPC=T NucTyp=        0
 TolInv= 1.00D-06 TolIt=  1.00D-10 IR12=0.
 FoFCou: FMM=F IPFlag=           0 FMFlag=           0 FMFlg1=           0
         NFxFlg=           0 DoJE=F BraDBF=T KetDBF=T FulRan=T
         wScrn=  0.000000 ICntrl=     600 IOpCl=  3 I1Cent=           6 NGrid=           0
         NMat0=    1 NMatS0=   3940 NMatT0=    0 NMatD0=    1 NMtDS0=    0 NMtDT0=    0
 Petite list used in FoFCou.
 DBF EigKep=  1.18D-06 EigRej= -1.00D+00
 NDBF=   3340  NBFD=  3340
 NRank=  3340 NBFDU=  3340
 S*AI*S=  12.5544385299    
 Defaulting to unpruned grid for atomic number  46.
 ExpMin= 2.62D-02 ExpMax= 2.52D+04 ExpMxC= 3.78D+03 IAcc=3 IRadAn=         5 AccDes= 0.00D+00
 Harris functional with IExCor= 1009 and IRadAn=       5 diagonalized for initial guess.
 HarFok:  IExCor= 1009 AccDes= 0.00D+00 IRadAn=         5 IDoV= 1 UseB2=F ITyADJ=14
 ICtDFT=  3500011 ScaDFX=  1.000000  1.000000  1.000000  1.000000
 Defaulting to unpruned grid for atomic number  46.
 Defaulting to unpruned grid for atomic number  46.
 Defaulting to unpruned grid for atomic number  46.
 Defaulting to unpruned grid for atomic number  46.
 Defaulting to unpruned grid for atomic number  46.
 Defaulting to unpruned grid for atomic number  46.
 Defaulting to unpruned grid for atomic number  46.
 Defaulting to unpruned grid for atomic number  46.
 Defaulting to unpruned grid for atomic number  46.
 Defaulting to unpruned grid for atomic number  46.
 Defaulting to unpruned grid for atomic number  46.
 Defaulting to unpruned grid for atomic number  46.
 Defaulting to unpruned grid for atomic number  46.
 Defaulting to unpruned grid for atomic number  46.
 FoFCou: FMM=F IPFlag=           0 FMFlag=      100000 FMFlg1=        2001
         NFxFlg=           0 DoJE=T BraDBF=F KetDBF=T FulRan=T
         wScrn=  0.000000 ICntrl=     500 IOpCl=  0 I1Cent=   200000004 NGrid=           0
         NMat0=    1 NMatS0=      1 NMatT0=    0 NMatD0=    1 NMtDS0=    0 NMtDT0=    0
 Petite list used in FoFCou.
 Requested convergence on RMS density matrix=1.00D-08 within 500 cycles.
 Requested convergence on MAX density matrix=1.00D-06.
 Requested convergence on             energy=1.00D-06.
 No special actions if energy rises.
 FoFCou: FMM=F IPFlag=           0 FMFlag=      100000 FMFlg1=        2001
         NFxFlg=           0 DoJE=T BraDBF=T KetDBF=F FulRan=T
         wScrn=  0.000000 ICntrl=     500 IOpCl=  0 I1Cent=           5 NGrid=           0
         NMat0=    1 NMatS0=      1 NMatT0=    0 NMatD0=    1 NMtDS0=    0 NMtDT0=    0
 Symmetry not used in FoFCou.
 Defaulting to unpruned grid for atomic number  46.
 Defaulting to unpruned grid for atomic number  46.
 Defaulting to unpruned grid for atomic number  46.
 Defaulting to unpruned grid for atomic number  46.
 Defaulting to unpruned grid for atomic number  46.
 Defaulting to unpruned grid for atomic number  46.
 Defaulting to unpruned grid for atomic number  46.
 Defaulting to unpruned grid for atomic number  46.
 Defaulting to unpruned grid for atomic number  46.
 Defaulting to unpruned grid for atomic number  46.
 Defaulting to unpruned grid for atomic number  46.
 Defaulting to unpruned grid for atomic number  46.
 Defaulting to unpruned grid for atomic number  46.
 Defaulting to unpruned grid for atomic number  46.
 EnCoef did     5 forward-backward iterations
 EnCoef did   100 forward-backward iterations
 Problem detected with inexpensive integrals.
 Switching to full accuracy and repeating last cycle.
 EnCoef did     3 forward-backward iterations
 EnCoef did   100 forward-backward iterations
 EnCoef did   100 forward-backward iterations
 EnCoef did   100 forward-backward iterations
 EnCoef did   100 forward-backward iterations
 EnCoef did     6 forward-backward iterations
 EnCoef did   100 forward-backward iterations
 EnCoef did     4 forward-backward iterations
 EnCoef did     2 forward-backward iterations
 EnCoef did     3 forward-backward iterations
 EnCoef did     2 forward-backward iterations
 EnCoef did     2 forward-backward iterations
 EnCoef did     6 forward-backward iterations
 Restarting incremental Fock formation.
 SCF Done:  E(RPBE-PBE) =  -3307.99052607     A.U. after   36 cycles
            NFock= 36  Conv=0.76D-08     -V/T= 2.0320

 **********************************************************************

            Population analysis using the SCF density.

 **********************************************************************

 Orbital symmetries:
       Occupied  (A) (A) (A) (A) (A) (A) (A) (A) (A) (A) (A) (A)
                 (A) (A) (A) (A) (A) (A) (A) (A) (A) (A) (A) (A)
                 (A) (A) (A) (A) (A) (A) (A) (A) (A) (A) (A) (A)
                 (A) (A) (A) (A) (A) (A) (A) (A) (A) (A) (A) (A)
                 (A) (A) (A) (A) (A) (A) (A) (A) (A) (A) (A) (A)
                 (A) (A) (A) (A) (A) (A) (A) (A) (A) (A) (A) (A)
                 (A) (A) (A) (A) (A) (A) (A) (A) (A) (A) (A) (A)
                 (A) (A) (A) (A) (A) (A) (A) (A) (A) (A) (A) (A)
                 (A) (A) (A) (A) (A) (A) (A) (A) (A) (A) (A) (A)
                 (A) (A) (A) (A) (A) (A) (A) (A) (A) (A) (A) (A)
                 (A) (A) (A) (A) (A) (A) (A) (A) (A) (A) (A) (A)
                 (A) (A) (A) (A) (A) (A) (A) (A) (A) (A) (A) (A)
                 (A) (A) (A) (A) (A) (A) (A) (A) (A) (A) (A) (A)
                 (A) (A) (A) (A) (A) (A) (A) (A) (A) (A) (A) (A)
                 (A) (A) (A) (A) (A) (A) (A) (A) (A) (A)
       Virtual   (A) (A) (A) (A) (A) (A) (A) (A) (A) (A) (A) (A)
                 (A) (A) (A) (A) (A) (A) (A) (A) (A) (A) (A) (A)
                 (A) (A) (A) (A) (A) (A) (A) (A) (A) (A) (A) (A)
                 (A) (A) (A) (A) (A) (A) (A) (A) (A) (A) (A) (A)
                 (A) (A) (A) (A) (A) (A) (A) (A) (A) (A) (A) (A)
                 (A) (A) (A) (A) (A) (A) (A) (A) (A) (A) (A) (A)
                 (A) (A) (A) (A) (A) (A) (A) (A) (A) (A) (A) (A)
                 (A) (A) (A) (A) (A) (A) (A) (A) (A) (A) (A) (A)
                 (A) (A) (A) (A) (A) (A) (A) (A) (A) (A) (A) (A)
                 (A) (A) (A) (A) (A) (A) (A) (A) (A) (A) (A) (A)
                 (A) (A) (A) (A) (A) (A) (A) (A) (A) (A) (A) (A)
                 (A) (A) (A) (A) (A) (A) (A) (A) (A) (A) (A) (A)
                 (A) (A) (A) (A) (A) (A) (A) (A) (A) (A) (A) (A)
                 (A) (A) (A) (A) (A) (A) (A) (A) (A) (A) (A) (A)
                 (A) (A) (A) (A) (A) (A) (A) (A) (A) (A) (A) (A)
                 (A) (A) (A) (A) (A) (A) (A) (A) (A) (A) (A) (A)
                 (A) (A) (A) (A) (A) (A) (A) (A) (A) (A) (A) (A)
                 (A) (A) (A) (A) (A) (A) (A) (A) (A) (A) (A) (A)
                 (A) (A) (A) (A) (A) (A) (A) (A) (A) (A) (A) (A)
                 (A) (A) (A) (A) (A) (A) (A) (A) (A) (A) (A) (A)
                 (A) (A) (A) (A) (A) (A) (A) (A) (A) (A) (A) (A)
                 (A) (A) (A) (A) (A) (A) (A) (A) (A) (A) (A) (A)
                 (A) (A) (A) (A) (A) (A) (A) (A) (A) (A) (A) (A)
                 (A) (A) (A) (A) (A) (A) (A) (A) (A) (A) (A) (A)
                 (A) (A) (A) (A) (A) (A) (A) (A) (A) (A) (A) (A)
                 (A) (A) (A) (A) (A) (A) (A) (A) (A) (A) (A) (A)
                 (A) (A) (A) (A) (A) (A) (A) (A) (A) (A) (A) (A)
                 (A) (A) (A) (A) (A) (A) (A) (A) (A) (A) (A) (A)
                 (A) (A) (A) (A) (A) (A) (A) (A) (A) (A) (A) (A)
                 (A) (A) (A) (A) (A) (A) (A) (A) (A) (A) (A) (A)
                 (A) (A) (A) (A) (A) (A) (A) (A) (A) (A) (A) (A)
                 (A) (A) (A) (A) (A) (A) (A) (A) (A) (A) (A) (A)
                 (A) (A) (A) (A) (A) (A) (A) (A) (A) (A) (A) (A)
                 (A) (A) (A) (A) (A) (A) (A) (A) (A) (A) (A) (A)
                 (A) (A) (A) (A) (A) (A) (A) (A) (A) (A) (A) (A)
                 (A) (A) (A) (A) (A) (A) (A) (A) (A) (A) (A) (A)
                 (A) (A) (A) (A) (A) (A) (A) (A) (A) (A) (A) (A)
                 (A) (A) (A) (A) (A) (A) (A) (A) (A) (A) (A) (A)
                 (A) (A) (A) (A) (A) (A) (A) (A) (A) (A) (A) (A)
                 (A) (A) (A) (A) (A) (A) (A) (A) (A) (A) (A) (A)
                 (A) (A) (A) (A) (A) (A) (A) (A) (A) (A) (A) (A)
                 (A) (A) (A) (A) (A) (A) (A) (A) (A) (A) (A) (A)
                 (A) (A) (A) (A) (A) (A) (A) (A) (A) (A) (A) (A)
                 (A) (A) (A) (A) (A) (A) (A) (A) (A) (A) (A) (A)
                 (A) (A) (A) (A) (A) (A) (A) (A) (A) (A) (A) (A)
                 (A) (A) (A) (A) (A) (A) (A) (A) (A) (A) (A) (A)
                 (A) (A) (A) (A) (A) (A) (A) (A) (A) (A) (A) (A)
                 (A) (A) (A) (A) (A) (A) (A) (A) (A) (A) (A) (A)
                 (A) (A) (A) (A) (A) (A) (A) (A) (A) (A)
 The electronic state is 1-A.
 Alpha  occ. eigenvalues -- -100.58219-100.58208 -76.37753 -76.37444 -18.83679
 Alpha  occ. eigenvalues --   -9.98200  -9.97832  -9.94556  -9.93556  -9.93298
 Alpha  occ. eigenvalues --   -9.93261  -9.93009  -9.92819  -9.92807  -9.92610
 Alpha  occ. eigenvalues --   -9.92579  -9.92557  -9.92269  -9.92257  -9.92022
 Alpha  occ. eigenvalues --   -9.91749  -9.91620  -9.91500  -9.91454  -9.91448
 Alpha  occ. eigenvalues --   -9.91438  -9.91363  -9.91326  -9.91199  -9.91187
 Alpha  occ. eigenvalues --   -9.91103  -9.91048  -9.90823  -9.90659  -9.90400
 Alpha  occ. eigenvalues --   -9.90350  -9.90317  -9.90266  -9.89924  -9.89900
 Alpha  occ. eigenvalues --   -9.89671  -9.89613  -9.89545  -9.89387  -9.07739
 Alpha  occ. eigenvalues --   -9.07728  -6.90123  -6.90122  -6.89326  -6.89317
 Alpha  occ. eigenvalues --   -6.89247  -6.89222  -6.35449  -6.35163  -4.57308
 Alpha  occ. eigenvalues --   -4.57250  -4.57016  -4.56957  -4.56929  -4.56651
 Alpha  occ. eigenvalues --   -3.18919  -1.95830  -1.95735  -1.91724  -1.02707
 Alpha  occ. eigenvalues --   -0.79841  -0.79603  -0.78195  -0.77706  -0.76987
 Alpha  occ. eigenvalues --   -0.76277  -0.75319  -0.71361  -0.70171  -0.69781
 Alpha  occ. eigenvalues --   -0.68274  -0.68087  -0.67745  -0.67610  -0.67099
 Alpha  occ. eigenvalues --   -0.66936  -0.66499  -0.66469  -0.66155  -0.63605
 Alpha  occ. eigenvalues --   -0.63345  -0.62513  -0.60458  -0.60008  -0.58873
 Alpha  occ. eigenvalues --   -0.58167  -0.55288  -0.55252  -0.54595  -0.54323
 Alpha  occ. eigenvalues --   -0.53949  -0.53807  -0.53270  -0.53206  -0.51808
 Alpha  occ. eigenvalues --   -0.51331  -0.50138  -0.49967  -0.46816  -0.46516
 Alpha  occ. eigenvalues --   -0.45969  -0.45583  -0.44904  -0.43863  -0.43679
 Alpha  occ. eigenvalues --   -0.42389  -0.42319  -0.41238  -0.41033  -0.40796
 Alpha  occ. eigenvalues --   -0.40536  -0.40448  -0.40049  -0.39842  -0.39634
 Alpha  occ. eigenvalues --   -0.39455  -0.38983  -0.38038  -0.37893  -0.37675
 Alpha  occ. eigenvalues --   -0.37458  -0.37078  -0.36951  -0.36583  -0.36470
 Alpha  occ. eigenvalues --   -0.36282  -0.35392  -0.35170  -0.35019  -0.34542
 Alpha  occ. eigenvalues --   -0.34159  -0.34104  -0.33891  -0.33176  -0.32530
 Alpha  occ. eigenvalues --   -0.32274  -0.31771  -0.31592  -0.31319  -0.31049
 Alpha  occ. eigenvalues --   -0.30798  -0.30748  -0.30606  -0.30317  -0.30024
 Alpha  occ. eigenvalues --   -0.29768  -0.29351  -0.28971  -0.28832  -0.28757
 Alpha  occ. eigenvalues --   -0.27882  -0.26246  -0.25381  -0.24827  -0.24330
 Alpha  occ. eigenvalues --   -0.23903  -0.23484  -0.23178  -0.22935  -0.22884
 Alpha  occ. eigenvalues --   -0.22678  -0.21935  -0.21821  -0.21745  -0.21129
 Alpha  occ. eigenvalues --   -0.21027  -0.20788  -0.20484  -0.17872  -0.17144
 Alpha  occ. eigenvalues --   -0.16933  -0.16287  -0.16034
 Alpha virt. eigenvalues --   -0.09213  -0.07392  -0.06349  -0.05603  -0.05239
 Alpha virt. eigenvalues --   -0.04903  -0.04471  -0.04203  -0.03760  -0.03260
 Alpha virt. eigenvalues --   -0.03101  -0.02906  -0.02174  -0.00661   0.02279
 Alpha virt. eigenvalues --    0.02306   0.02629   0.04415   0.04875   0.05187
 Alpha virt. eigenvalues --    0.05733   0.05992   0.06815   0.07273   0.07938
 Alpha virt. eigenvalues --    0.08141   0.08395   0.08883   0.09022   0.09277
 Alpha virt. eigenvalues --    0.09529   0.10027   0.10253   0.10404   0.10709
 Alpha virt. eigenvalues --    0.11114   0.11233   0.11744   0.11869   0.12124
 Alpha virt. eigenvalues --    0.12201   0.12541   0.12855   0.13249   0.13389
 Alpha virt. eigenvalues --    0.13478   0.14120   0.14196   0.14621   0.14786
 Alpha virt. eigenvalues --    0.15586   0.15856   0.15974   0.16353   0.16604
 Alpha virt. eigenvalues --    0.16769   0.16775   0.17070   0.17298   0.17729
 Alpha virt. eigenvalues --    0.18071   0.18248   0.18732   0.18973   0.19675
 Alpha virt. eigenvalues --    0.19836   0.20219   0.21753   0.22193   0.22985
 Alpha virt. eigenvalues --    0.23246   0.24004   0.24642   0.25002   0.25170
 Alpha virt. eigenvalues --    0.25400   0.25489   0.25948   0.26057   0.26360
 Alpha virt. eigenvalues --    0.26925   0.27343   0.27580   0.27655   0.27745
 Alpha virt. eigenvalues --    0.28218   0.28786   0.29100   0.29541   0.29850
 Alpha virt. eigenvalues --    0.30565   0.31577   0.32010   0.32537   0.32922
 Alpha virt. eigenvalues --    0.33749   0.35446   0.36089   0.36602   0.37807
 Alpha virt. eigenvalues --    0.39229   0.40110   0.40548   0.40883   0.41197
 Alpha virt. eigenvalues --    0.43165   0.43781   0.44321   0.44519   0.44592
 Alpha virt. eigenvalues --    0.45601   0.45879   0.46612   0.46784   0.46863
 Alpha virt. eigenvalues --    0.47073   0.47188   0.47705   0.48199   0.48297
 Alpha virt. eigenvalues --    0.48548   0.48656   0.48998   0.49178   0.49395
 Alpha virt. eigenvalues --    0.49480   0.49999   0.50349   0.50504   0.50946
 Alpha virt. eigenvalues --    0.50994   0.51132   0.51309   0.51505   0.51549
 Alpha virt. eigenvalues --    0.51860   0.52581   0.52692   0.53059   0.53115
 Alpha virt. eigenvalues --    0.53470   0.53688   0.53763   0.53929   0.54396
 Alpha virt. eigenvalues --    0.54617   0.54763   0.55466   0.55656   0.55743
 Alpha virt. eigenvalues --    0.55875   0.55985   0.56099   0.56491   0.56678
 Alpha virt. eigenvalues --    0.56980   0.57415   0.57603   0.57672   0.57691
 Alpha virt. eigenvalues --    0.58118   0.58416   0.58648   0.58959   0.59423
 Alpha virt. eigenvalues --    0.59504   0.59657   0.60067   0.60358   0.61140
 Alpha virt. eigenvalues --    0.61842   0.61923   0.62425   0.63623   0.63780
 Alpha virt. eigenvalues --    0.64039   0.64504   0.64853   0.66117   0.66718
 Alpha virt. eigenvalues --    0.67385   0.67447   0.67791   0.68101   0.68514
 Alpha virt. eigenvalues --    0.68750   0.69512   0.69799   0.70764   0.71240
 Alpha virt. eigenvalues --    0.71557   0.72948   0.73178   0.73253   0.74195
 Alpha virt. eigenvalues --    0.74697   0.75066   0.75665   0.75836   0.76381
 Alpha virt. eigenvalues --    0.76758   0.77070   0.77230   0.77694   0.78120
 Alpha virt. eigenvalues --    0.78336   0.78553   0.78714   0.78904   0.78991
 Alpha virt. eigenvalues --    0.79527   0.79674   0.79871   0.80162   0.80344
 Alpha virt. eigenvalues --    0.80760   0.81002   0.81365   0.81899   0.82034
 Alpha virt. eigenvalues --    0.82646   0.82694   0.83103   0.83602   0.83736
 Alpha virt. eigenvalues --    0.84242   0.84448   0.84725   0.84858   0.85040
 Alpha virt. eigenvalues --    0.85441   0.85776   0.85927   0.85973   0.86943
 Alpha virt. eigenvalues --    0.87339   0.87752   0.88211   0.88657   0.88783
 Alpha virt. eigenvalues --    0.88958   0.89207   0.89349   0.89808   0.90389
 Alpha virt. eigenvalues --    0.90758   0.91134   0.91344   0.91924   0.92421
 Alpha virt. eigenvalues --    0.92505   0.92905   0.93031   0.93738   0.94064
 Alpha virt. eigenvalues --    0.94381   0.94644   0.94917   0.95264   0.95930
 Alpha virt. eigenvalues --    0.96138   0.96663   0.97247   0.97512   0.98128
 Alpha virt. eigenvalues --    0.98548   0.98822   0.98980   0.99481   0.99837
 Alpha virt. eigenvalues --    1.00667   1.01018   1.01335   1.01921   1.02503
 Alpha virt. eigenvalues --    1.02857   1.03917   1.04134   1.04272   1.04795
 Alpha virt. eigenvalues --    1.05409   1.06238   1.06867   1.07318   1.07959
[...]
 0.00026628,-0.00033753,-0.00077321,0.00000551,-0.00000532,0.00004137,0
 .00003415,-0.00005128,0.00001582,0.00002469,-0.00005223,-0.00027778,-0
 .00000214,0.00000318,-0.00000524,-0.00001395,-0.00000851,0.00002161,-0
 .00046448,0.00009777,0.00005673,0.00000293,-0.00001517,0.00004536,0.00
 007360,-0.00002832,0.00008869,0.00000297,-0.00004410,0.00001491,0.0000
 2494,-0.00002955,0.00006275,-0.00005134,-0.00004328,-0.00002188,0.0000
 3242,-0.00013786,0.00037910,0.00008895,0.00000025,-0.00004412,0.000006
 82,0.00001829,-0.00000726,-0.00000775,0.00001670,-0.00001627,-0.000051
 79,0.00010314,-0.00010556,0.00591952,-0.05025706,0.09836294,-0.0018587
 7,-0.00359489,-0.00315953,-0.00100837,-0.00024625,-0.00014851,0.000462
 25,-0.00002112,0.00061928,-0.00008634,0.00011304,0.00010175,-0.0001274
 3,0.00002850,0.00011248,-0.00000819,-0.00002714,-0.00019771,-0.0010934
 1,0.00020623,0.00011312,0.00064419,-0.00099666,0.00094372,-0.00018936,
 0.00002221,-0.00012073,0.00012673,0.00001428,0.00003048,0.00009363,-0.
 00007979,0.00009558,-0.00325997,0.00060469,0.00131068,0.00016982,-0.00
 112800,-0.00086044,-0.00015723,-0.00015972,0.00036333,-0.00008716,-0.0
 0007175,-0.00002726,-0.00004405,0.00002554,0.00009608,-0.00017237,0.00
 009349,0.00025925,-0.00121143,-0.00027857,0.00064536,-0.00006356,-0.00
 044775,-0.00027089,-0.00005244,0.00014493,0.00004898,-0.00003896,0.000
 04798,-0.00040055,0.00017344,0.00010650,-0.00013117,-0.00017001,0.0005
 7352,0.00023477,0.00008245,-0.00004229,-0.00007217,-0.00003230,0.00000
 426,0.00003824,-0.00003708,-0.00000042,0.00010391,-0.00001220,0.000025
 91,-0.00002919,-0.00000955,-0.00002577,-0.00004076,-0.00010536,-0.0000
 3910,-0.00006803,0.00000574,-0.00002775,-0.00003145,-0.00008724,-0.000
 07927,0.00010379,-0.00009074,0.00002084,0.00000549,-0.00006069,0.00000
 856,-0.00008682,-0.00003142,-0.00004905,0.00009397,-0.00004802,0.00009
 114,-0.00004582,-0.00009413,-0.00017532,-0.00001524,-0.00003763,-0.000
 05376,-0.00002935,-0.00000162,-0.00008767,-0.00006638,-0.00002640,0.00
 031454,0.00006908,-0.00418343,-0.00368283,0.00049415,0.00089386,-0.000
 17762,-0.00036506,0.00005341,0.00014419,0.00010744,0.00010924,-0.00016
 980,0.00005946,-0.00003472,0.00006730,-0.00005189,0.00011340,-0.000028
 00,0.00037172,-0.00110147,0.00109759,-0.00099364,0.00074545,-0.0005752
 8,0.00033320,-0.00013004,0.00007240,0.00019459,-0.00000005,-0.00003335
 ,-0.00007622,0.00006884,0.00003923,0.00002486,0.00004905,-0.00000580,-
 0.00011623,0.00004972,0.00010867,0.00007522,0.00026215,0.00133712,0.00
 096496,0.00015443,0.00078794,-0.00028394,0.00017254,-0.00010381,0.0003
 4443,-0.00001910,0.00001241,-0.00016058,0.00089904,0.00002044,-0.00029
 555,-0.00024029,0.00109654,-0.00056888,-0.00003063,-0.00009741,0.00005
 131,-0.00002048,-0.00002250,0.00001945,-0.00001738,-0.00003262,0.00002
 633,0.00002895,-0.00000559,0.00007554,0.00004939,0.00005045,0.00009641
 ,-0.00005292,0.00010942,0.00019760,-0.00013112,-0.00030894,0.00026841,
 -0.00006293,-0.00019961,-0.00002585,-0.00001712,-0.00002326,-0.0000175
 0,0.00000601,0.00001158,-0.00001773,-0.00000134,0.00004089,-0.00005547
 ,-0.00000655,-0.00003926,-0.00007018,0.00008043,-0.00007295,-0.0000350
 1,0.00000812,-0.00003101,0.00002302,0.00000052,-0.00007258,0.00000648,
 -0.00003863,0.00009256,-0.00004056,-0.06586998,-0.01902593,-0.00298675
 ,0.08050727,-0.00009947,0.00286582,-0.00037625,-0.00063503,-0.00029072
 ,-0.00002171,0.00016853,-0.00003962,0.00028392,-0.00003660,0.00007362,
 0.00002814,-0.00006573,0.00000840,0.00001911,0.00006278,0.00004897,-0.
 00008879,-0.00058081,0.00006013,-0.00006350,0.00030953,0.00015549,-0.0
 0002439,-0.00002806,-0.00005529,-0.00003948,0.00002838,0.00005314,0.00
 001836,-0.00003751,-0.00004022,0.00014271,0.00030382,0.00002123,0.0000
 6184,0.00003681,0.00006681,-0.00003446,-0.00000794,0.00003857,-0.00002
 385,0.00003005,0.00001997,-0.00000469,-0.00001850,-0.00003205,-0.00000
 030,0.00010528,0.00006816,-0.00000426,-0.00056252,-0.00004245,0.000066
 50,-0.00013658,-0.00020898,-0.00009080,-0.00002747,-0.00003394,-0.0000
 1986,0.00008280,0.00001109,-0.00008791,0.00000391,0.00009153,-0.000076
 62,-0.00004996,0.00021284,0.00016057,0.00001394,-0.00002482,-0.0000223
 4,-0.00000400,-0.00001284,0.00000950,-0.00001075,0.00000685,0.00003888
 ,0.00001625,0.00002183,-0.00002495,-0.00001526,-0.00000387,0.00000090,
 -0.00007905,-0.00002421,-0.00000523,0.00002012,0.00002102,-0.00002057,
 -0.00003999,-0.00001778,0.00002258,-0.00002867,0.00000103,0.00000611,-
 0.00000859,0.00001345,-0.00003104,-0.00001586,-0.00001749,0.00002520,0
 .00001322,-0.00000169,0.00001076,0.00000311,0.00000185,0.00000321,0.00
 000079,-0.00000210,-0.00000260,0.00000925,0.00000137,0.00000988,-0.000
 03213,-0.00002096,-0.00001506,-0.00081413,-0.00526954,0.00088098,-0.00
 043506,0.00060063,-0.00037220,0.00003813,-0.00011258,-0.00028408,-0.00
 012332,0.00013500,0.00000949,0.00004501,-0.00003557,0.00008313,0.00008
 684,0.00008044,-0.00003626,0.00011350,-0.00035860,0.00036192,-0.000349
 59,0.00028448,0.00073816,0.00005623,-0.00035536,-0.00028524,-0.0000512
 2,0.00002535,-0.00001119,-0.00000168,-0.00000327,0.00000706,-0.0001284
 6,0.00005339,0.00010591,-0.00010395,-0.00040987,-0.00009646,0.00097254
 ,-0.00513783,-0.00004665,0.00025147,-0.00345032,-0.00022339,0.00080024
 ,0.00009293,-0.00016759,-0.00064244,0.00029487,0.00047727,-0.00039834,
 0.00005237,-0.00014440,-0.00031216,-0.00304542,0.00030685,-0.00000847,
 0.00007826,-0.00006277,-0.00001999,-0.00001203,0.00000719,0.00000305,-
 0.00000485,-0.00002623,0.00000623,-0.00001370,0.00001540,0.00001543,0.
 00001665,0.00002489,0.00007444,0.00006525,0.00005915,-0.00001103,0.000
 14163,-0.00001807,-0.00001276,0.00008172,0.00010970,0.00000688,-0.0000
 1515,-0.00000115,-0.00001540,-0.00001739,0.00001702,-0.00003259,-0.000
 04777,0.00001143,-0.00003124,0.00001093,0.00001013,0.00005784,0.000015
 93,0.00004886,0.00002916,-0.00006106,0.00000235,-0.00002849,-0.0000057
 8,-0.00005435,-0.00001617,0.00002861,-0.00001258,-0.02460796,-0.020481
 28,0.00057951,0.02154576,0.03154553,-0.00007103,0.00025629,0.00436986,
 -0.00148793,-0.00027911,-0.00021883,0.00026031,0.00000238,0.00059683,-
 0.00010388,0.00009445,0.00004754,-0.00012312,0.00000161,0.00003124,0.0
 0017456,0.00000631,-0.00020423,-0.00110815,0.00013948,-0.00010326,0.00
 116028,0.00022598,-0.00002571,-0.00012973,0.00002098,0.00000703,0.0000
 6359,0.00000675,0.00003019,0.00003592,-0.00006214,0.00012929,-0.000284
 09,0.00012469,0.00000830,0.00000257,-0.00003506,-0.00012451,0.00001218
 ,-0.00003352,0.00004723,-0.00000692,-0.00000388,-0.00000576,0.00000926
 ,-0.00003075,0.00004564,0.00011100,0.00006431,-0.00005721,0.00042282,-
 0.00001404,-0.00026129,0.00014470,0.00005900,0.00003808,0.00003744,-0.
 00002841,0.00000620,-0.00007681,-0.00002334,0.00000622,-0.00006444,0.0
 0003275,0.00000580,0.00004200,-0.00003590,0.00011237,0.00001525,-0.000
 02774,-0.00001567,-0.00000149,-0.00001178,0.00000430,-0.00001198,0.000
 01373,0.00007489,-0.00000171,0.00001985,-0.00001880,0.00001021,-0.0000
 2050,-0.00001873,-0.00010593,0.00004182,-0.00000015,0.00003619,-0.0000
 2000,-0.00004176,-0.00000935,-0.00004657,-0.00004242,0.00000196,0.0000
 0200,-0.00000611,0.00001145,0.00000257,-0.00000258,0.00002259,0.000014
 66,-0.00001113,-0.00001754,0.00001648,-0.00001771,-0.00000533,-0.00001
 807,0.00000494,-0.00001447,0.00000014,-0.00001693,0.00000026,0.0000027
 3,-0.00001115,-0.00001858,-0.00002680,-0.00002990,-0.00077610,-0.00051
 699,-0.00185948,0.00046443,-0.00023123,0.00035086,0.00026056,-0.000025
 22,0.00056996,0.00016579,-0.00018475,-0.00014763,-0.00012473,0.0001545
 2,-0.00013042,-0.00011300,0.00001941,0.00038324,-0.00012036,-0.0000399
 3,-0.00024025,-0.00007705,0.00000397,0.00021030,0.00014701,0.00020976,
 0.00004126,-0.00006057,0.00006987,0.00003193,-0.00001876,0.00000467,0.
 00003849,0.00003884,-0.00007115,-0.00005721,0.00012975,0.00013802,0.00
 005132,0.00084980,0.00046768,0.00164918,0.00036079,-0.00041610,-0.0006
 5660,0.00011993,0.00012535,0.00069453,-0.00094631,-0.00030273,0.000243
 19,0.00075670,-0.00003954,-0.00048945,-0.00084638,0.00054385,-0.000299
 02,-0.00002363,0.00002030,-0.00002279,-0.00000315,0.00001636,-0.000005
 98,-0.00002795,-0.00001812,0.00000709,0.00000002,0.00000578,0.00003505
 ,0.00001347,0.00004127,0.00003572,0.00027155,0.00031958,0.00013318,0.0
 0010671,-0.00011160,0.00015457,0.00004953,0.00003060,-0.00001326,0.000
 00701,0.00003589,-0.00001102,0.00000459,0.00000665,0.00000141,0.000000
 41,0.00002427,-0.00001909,-0.00003705,-0.00000120,-0.00001455,0.000031
 58,-0.00003152,-0.00001283,0.00002444,0.00003054,0.00002579,-0.0000436
 2,0.00005251,0.00004869,-0.00000072,-0.00000162,0.00000350,-0.00123302
 ,0.00126637,-0.00952648,0.00592068,-0.00258047,0.00501822,-0.00262893,
 -0.00121691,0.00013380,0.00083424,-0.00002663,0.00024176,-0.00006505,0
 .00002281,-0.00027550,0.00015594,-0.00006671,0.00009701,-0.00007595,0.
 00001236,-0.00000167,0.00012504,-0.00000761,-0.00011930,-0.00070898,0.
 00011139,0.00014512,0.00049043,-0.00022401,0.00003647,-0.00006362,0.00
 004750,-0.00000487,0.00003400,-0.00002359,0.00000988,0.00004163,-0.000
 01427,0.00000870,-0.00005256,-0.00036327,0.00039543,0.00003692,-0.0001
 4394,-0.00001013,-0.00000832,-0.00000674,0.00001047,-0.00000116,-0.000
 01442,-0.00000391,0.00002762,-0.00000309,-0.00001729,-0.00014481,0.000
 00055,0.00011977,-0.00331303,-0.00294532,-0.00054229,-0.00424851,0.001
 35207,0.00162831,0.00025858,-0.00080570,-0.00063904,-0.00047056,-0.000
 53515,0.00104909,-0.00071944,0.00083984,-0.00069179,0.00071184,-0.0003
 3375,0.00192638,0.00009996,0.00002919,-0.00008019,0.00000160,-0.000001
 32,0.00000285,0.00001846,0.00000699,-0.00003066,-0.00001204,0.00000235
 ,0.00000334,0.00001330,-0.00001328,-0.00001750,-0.00001994,0.00001959,
 0.00000168,0.00000514,-0.00002867,-0.00001943,-0.00155639,-0.00053347,
 -0.00017632,-0.00000985,0.00000594,-0.00010785,0.00001717,-0.00001952,
 -0.00000109,0.00004392,0.00002728,-0.00009353,0.00000537,0.00000024,-0
 .00002679,-0.00002376,-0.00000103,-0.00001922,-0.00000748,-0.00000187,
 -0.00001036,-0.00001386,-0.00001062,-0.00002563,-0.00001913,-0.0000392
 8,-0.00005673,0.00322631,0.00248355,-0.00151104,-0.00052178,0.00043611
 ,-0.00013026,0.00010757,-0.00022843,-0.00019297,0.00000891,0.00004392,
 -0.00005699,-0.00002743,0.00002667,-0.00005906,0.00000267,0.00001637,0
 .00010410,-0.00019391,0.00020683,-0.00016639,-0.00103378,0.00068125,-0
 .00061187,0.00026732,0.00013920,-0.00024247,0.00014620,0.00004041,0.00
 014795,-0.00001458,0.00012133,0.00001948,0.00004112,-0.00007804,0.0000
 7883,-0.00007982,0.00023236,0.00014101,0.00020368,-0.00022630,0.000153
 60,-0.00001404,0.00001954,0.00001488,-0.00000102,-0.00000422,0.0000338
 9,-0.00001259,-0.00001780,-0.00000051,0.00004031,0.00002276,-0.0000304
 8,-0.00002077,-0.00001158,0.00003181,0.00000284,-0.00001303,0.00002357
 ,-0.00000559,-0.00000171,-0.00001328,0.00001464,0.00000595,-0.00004219
 ,0.00000004,0.00000809,0.00001725,0.00000834,0.00001160,0.00001098,-0.
 00001226,-0.00002494,-0.00001597,0.00002163,-0.00002004,0.00000700,-0.
 00005290,0.00001618,-0.00005867,0.00002283,0.00005635,0.00001678,-0.00
 000715,0.00002990,-0.00002530,0.00003336,0.00003299,-0.00003074,-0.000
 02644,-0.00004328,-0.00003224,-0.00000873,0.00000701,-0.00000733,-0.00
 001192,0.00000592,0.00000449,-0.00000317,0.00000101,0.00000861,0.00006
 768,-0.00002603,0.00006857,-0.01482989,0.00619851,-0.00454805,-0.00374
 846,0.00535360,-0.00420330,0.02765298,-0.00161337,-0.00481481,0.003249
 33,-0.00051551,0.00008076,-0.00052863,-0.00004232,0.00006720,0.0001510
 6,-0.00014898,0.00007379,-0.00007248,0.00008684,-0.00000623,0.00000296
 ,-0.00021970,0.00011439,0.00021988,0.00133951,-0.00020117,-0.00019753,
 -0.00123551,0.00046506,-0.00005321,0.00013914,-0.00014202,-0.00003722,
 -0.00005696,0.00010321,-0.00001401,-0.00013984,0.00001956,0.00006071,-
 0.00041789,-0.00013908,0.00013654,-0.00005759,-0.00000862,-0.00005106,
 -0.00004471,0.00000387,-0.00004630,-0.00000184,0.00004908,-0.00000364,
 -0.00010323,0.00003204,0.00002641,0.00028388,0.00010657,-0.00012801,-0
 .00005201,0.00021260,0.00015715,-0.00108952,-0.00054922,-0.00102306,-0
 .00027100,-0.00030338,-0.00034972,0.00058291,0.00040142,0.00024951,-0.
 00009340,0.00043385,0.00007824,0.00004731,0.00010171,0.00064079,-0.000
 08845,-0.00008374,0.00007827,-0.00001404,-0.00002758,0.00001944,-0.000
 02673,-0.00000936,0.00001705,0.00003731,0.00000740,-0.00002180,-0.0000
 4914,0.00002932,0.00004452,0.00004241,-0.00010863,0.00000317,-0.000027
 47,0.00008262,0.00005568,-0.00004627,0.00015129,0.00055680,-0.00000646
 ,0.00000336,0.00004830,0.00000362,0.00004619,-0.00000438,0.00014909,0.
 00006008,0.00009492,0.00001912,-0.00002714,0.00005626,0.00000047,-0.00
 001481,0.00001689,0.00001448,-0.00001009,0.00002726,0.00003814,0.00000
 999,0.00005606,0.00001246,0.00002872,0.00017501,-0.00031947,-0.0003101
 2,0.00276686,0.00147192,-0.00205735,0.00051591,-0.00051573,0.00075385,
 0.00074049,0.00013213,-0.00014803,0.00018668,0.00005421,-0.00007149,0.
 00013492,0.00005347,-0.00001037,-0.00021102,0.00061794,-0.00069573,0.0
 0032692,0.00097363,-0.00094345,0.00060146,-0.00039347,0.00001023,0.000
 60109,-0.00027545,-0.00010746,-0.00012472,0.00003335,-0.00013801,-0.00
 001872,-0.00007005,-0.00002707,-0.00013803,0.00033454,-0.00035182,-0.0
 0029070,0.00022397,-0.00049015,0.00093313,0.00007476,0.00011874,0.0001
 8894,0.00001841,-0.00001327,-0.00002615,0.00008903,0.00006292,0.000025
 98,0.00011123,0.00013434,0.00002021,0.00011307,-0.00023224,-0.00059424
 ,-0.00001477,0.00001010,-0.00007892,-0.00000178,-0.00000570,0.00004337
 ,-0.00003698,-0.00000820,0.00015397,0.00000714,-0.00003104,-0.00002893
 ,-0.00000168,-0.00001421,-0.00002833,-0.00005900,0.00001238,0.00010632
 ,-0.00006658,-0.00005559,0.00002228,0.00007832,0.00002669,0.00005908,-
 0.00003969,-0.00009475,-0.00004181,-0.00000068,-0.00005774,0.00003838,
 -0.00006900,-0.00005582,0.00004076,0.00005937,0.00005202,0.00005671,0.
 00009565,-0.00002240,-0.00001349,0.00004238,-0.00005279,-0.00001664,0.
 00003711,-0.00003315,-0.00006032,-0.00011141,0.00010958,-0.00005799,0.
 00825983,-0.06365405,0.02881102,0.00325949,0.00223926,0.00055362,-0.01
 059994,0.06991373,0.00156676,0.00181485,-0.00130594,0.00010973,0.00002
 345,0.00036626,-0.00021166,0.00010219,0.00003248,0.00005877,-0.0000403
 6,0.00000055,-0.00003674,0.00000733,0.00000471,0.00015615,-0.00015257,
 -0.00002167,-0.00082646,0.00000162,0.00024350,0.00041413,0.00066079,-0
 .00018846,-0.00003882,0.00003713,0.00001171,0.00001835,-0.00002153,0.0
 0001399,0.00000632,-0.00000747,0.00003224,0.00029525,-0.00002311,-0.00
 007317,0.00003066,0.00011721,0.00004884,0.00001898,-0.00000637,0.00002
 494,-0.00000448,-0.00002773,0.00000187,0.00003375,-0.00001120,0.000030
 74,0.00004831,-0.00003447,-0.00004496,-0.00057729,0.00037197,-0.000200
 25,0.00071601,-0.00083858,-0.00072325,-0.00002656,-0.00029270,0.000053
 50,0.00016107,-0.00003782,0.00071949,0.00003168,0.00017914,0.00009323,
 0.00005814,-0.00001253,0.00025569,0.00005579,0.00002340,-0.00002824,0.
 00001634,0.00003307,-0.00001338,0.00001050,-0.00000958,-0.00000979,-0.
 00000481,0.00000671,0.00000123,0.00001776,-0.00001251,-0.00000858,0.00
 002088,0.00001212,0.00002022,0.00001514,-0.00001855,-0.00000690,0.0007
 6156,0.00047168,-0.00010428,0.00006450,0.00001657,0.00001002,0.0000316
 1,0.00000324,-0.00000507,0.00001489,0.00007200,-0.00006587,-0.00002993
 ,0.00000289,-0.00001308,0.00000558,0.00001115,-0.00000270,-0.00001885,
 0.00000777,-0.00001322,-0.00001824,0.00002783,-0.00003140,-0.00008347,
 -0.00000093,-0.00011103,0.00004664,0.00259275,0.00381650,0.00019579,-0
 .00034031,0.00000820,0.00001862,-0.00009069,0.00009987,0.00001170,-0.0
 0002584,-0.00002984,0.00000486,0.00000694,-0.00003850,-0.00004311,0.00
 002996,-0.00001486,-0.00001542,0.00001655,-0.00012220,-0.00082796,0.00
 085674,-0.00084384,0.00031382,0.00006588,-0.00037756,0.00016413,0.0000
 1043,0.00015973,0.00002552,0.00005061,-0.00005254,0.00012340,0.0000865
 0,0.00015910,-0.00029366,0.00021829,0.00018466,-0.00041332,0.00046491,
 -0.00104185,-0.00016075,-0.00009270,-0.00019010,-0.00005573,0.00001800
 ,-0.00000340,-0.00001134,-0.00002776,-0.00005801,-0.00010916,-0.000082
 21,-0.00003293,-0.00012524,0.00020767,0.00053165,0.00001651,0.00000344
 ,0.00003009,-0.00000100,0.00000806,-0.00002187,0.00000369,0.00001103,-
 0.00001250,-0.00000999,0.00000971,0.00000584,-0.00000332,0.00001809,-0
 .00001535,0.00011600,0.00003378,-0.00014271,0.00003521,0.00002293,-0.0
 0001585,-0.00006755,0.00000610,-0.00006597,0.00002039,0.00006928,0.000
 01985,-0.00000953,0.00004219,-0.00004095,0.00005237,0.00004041,-0.0000
 1606,-0.00005075,-0.00002003,-0.00008142,-0.00007176,0.00001516,0.0000
 2169,-0.00002630,0.00002533,0.00001081,-0.00003929,0.00003966,0.000051
 58,0.00009092,-0.00002789,-0.00004572,-0.00694147,0.03143299,-0.026737
 77,-0.00308159,0.00073720,-0.00055352,0.00825734,-0.03888925,0.0264617
 9\\0.00000174,-0.00000746,-0.00000028,0.00000007,0.00000790,-0.0000097
 8,0.00000059,-0.00000165,-0.00000074,0.00000235,0.00000077,0.00000085,
 -0.00000263,0.00000050,-0.00000057,0.00000475,-0.00000232,-0.00000675,
 0.00000656,0.00000796,0.00002345,-0.00000913,-0.00001657,-0.00001064,-
 0.00000339,-0.00000652,0.00000272,0.00000353,0.00000757,0.00000011,-0.
 00000051,0.00000008,-0.00000085,-0.00000027,-0.00000574,-0.00000178,0.
 00000712,0.00000351,-0.00000139,-0.00000111,-0.00000230,0.00000037,-0.
 00000103,-0.00000009,0.00000238,0.00000370,0.00000571,-0.00000197,-0.0
 0000260,-0.00000792,0.00000303,0.00000356,0.00001142,0.00001016,0.0000
 0049,-0.00000826,-0.00000442,0.00000135,0.00000373,0.00000199,-0.00000
 114,0.00000315,-0.00000320,0.00000404,-0.00000600,0.00000204,-0.000006
 14,-0.00000031,-0.00001029,0.00000138,0.00000361,-0.00000285,0.0000007
 9,-0.00000081,-0.00000056,-0.00000060,0.00000040,-0.00000005,-0.000001
 93,-0.00000204,0.00000189,-0.00000193,-0.00000010,-0.00000221,0.000001
 07,0.00000181,-0.00000032,-0.00000017,0.00000107,-0.00000019,0.0000024
 1,0.00000066,0.00000095,0.00000066,0.00000152,-0.00000087,0.00000030,0
 .00000146,-0.00000095,-0.00000063,0.00000279,-0.00000198,-0.00000091,0
 .00000105,0.00000189,-0.00000044,0.00000039,-0.00000115,-0.00000125,-0
 .00000002,0.00000016,-0.00000016,-0.00000018,0.00000028,0.00000120,0.0
 0000279,-0.00000058,-0.00000223,0.00000311,-0.00001153,0.00001023,0.00
 000211,-0.00000036,-0.00000297,-0.00000483,0.00000251,0.00000042,0.000
 00093,-0.00000405,-0.00000188,0.00000063,-0.00000030,-0.00000002,-0.00
 000295,0.00000071,-0.00000327,0.00001168,0.00001421,0.00000825,-0.0000
 0985,-0.00001370,-0.00000772,0.00000391,0.00000825,-0.00000418,-0.0000
 0299,0.00000117,0.00000167,-0.00000069,-0.00000409,-0.00000392,0.00000
 745,0.00000278,-0.00000035,0.00000090,0.00000191,0.00000322,-0.0000027
 3,0.00001077,0.00000038,-0.00000042,0.00000248,-0.00000220,-0.00000036
 ,-0.00000048,0.00000137,-0.00000090,-0.00000150,0.00000019,0.00000019,
 0.00000225,-0.00000044,-0.00000339,-0.00000396,0.00000240,0.00000204,-
 0.00000055,-0.00000137,0.00000050,-0.00000080,-0.00000142,-0.00000159,
 0.00000050,0.00000043,-0.00000146,-0.00000131,0.00000064,-0.00000001,0
 .00000061,-0.00000158,-0.00000197,-0.00000103,-0.00000128,0.00000150,0
 .00000245,0.00000293,0.00000200,-0.00000256,-0.00000065,-0.00000052,0.
 00000043,-0.00000004,-0.00000124,-0.00000073,-0.00000042,0.00000039,-0
 .00000038,-0.00000277,0.00000021,0.00000136,-0.00000050,-0.00000196,0.
 00000021,0.00000055,-0.00000154,0.00000070,0.00000072,0.,0.00000028,0.
 00000038,0.00000017,-0.00000037,-0.00001194,-0.00000186,0.00000838,0.0
 0000660,0.00000151,-0.00000024,-0.00000090,0.00000048,-0.00000191\\\@


 THE POLHOLDE ROLLS WITHOUT SLIPPING ON THE HERPOLHOLDE LYING IN
 THE INVARIABLE PLANE.
 H.GOLDSTEIN, "CLASSICAL MECHANICS", PG 161
 Job cpu time:       0 days  9 hours 29 minutes 56.3 seconds.
 File lengths (MBytes):  RWF=   5333 Int=      0 D2E=      0 Chk=    144 Scr=      1
 Normal termination of Gaussian 09 at Wed Nov 17 01:55:03 2021.
